
     Program PWSCF v.7.2 starts on 23Jan2025 at 15:21:27 

     This program is part of the open-source Quantum ESPRESSO suite
     for quantum simulation of materials; please cite
         "P. Giannozzi et al., J. Phys.:Condens. Matter 21 395502 (2009);
         "P. Giannozzi et al., J. Phys.:Condens. Matter 29 465901 (2017);
         "P. Giannozzi et al., J. Chem. Phys. 152 154105 (2020);
          URL http://www.quantum-espresso.org", 
     in publications or presentations arising from this work. More details at
     http://www.quantum-espresso.org/quote

     Parallel version (MPI), running on   128 processors

     MPI processes distributed on     4 nodes
     446499 MiB available memory on the printing compute node when the environment starts

     Reading input from in

     Current dimensions of program PWSCF are:
     Max number of different atomic species (ntypx) = 10
     Max number of k-points (npk) =  40000
     Max angular momentum in pseudopotentials (lmaxx) =  4

     Atomic positions and unit cell read from directory:
     ./bn.save/
     Atomic positions from file used, from input discarded

     Message from routine setup:
     using ibrav=0 with symmetry is DISCOURAGED, use correct ibrav instead

     K-points division:     npool     =       8
     R & G space division:  proc/nbgrp/npool/nimage =      16
     Subspace diagonalization in iterative solution of the eigenvalue problem:
     a serial algorithm will be used


     Parallelization info
     --------------------
     sticks:   dense  smooth     PW     G-vecs:    dense   smooth      PW
     Min          27      27     11                 3629     3629     997
     Max          28      28     12                 3654     3654    1022
     Sum         433     433    187                58173    58173   16253

     Using Slab Decomposition



     bravais-lattice index     =            0
     lattice parameter (alat)  =       4.7319  a.u.
     unit-cell volume          =     732.8682 (a.u.)^3
     number of atoms/cell      =            2
     number of atomic types    =            2
     number of electrons       =         8.00
     number of Kohn-Sham states=           50
     kinetic-energy cutoff     =      70.0000  Ry
     charge density cutoff     =     280.0000  Ry
     Exchange-correlation= PZ
                           (   1   1   0   0   0   0   0)

     celldm(1)=   4.731874  celldm(2)=   0.000000  celldm(3)=   0.000000
     celldm(4)=   0.000000  celldm(5)=   0.000000  celldm(6)=   0.000000

     crystal axes: (cart. coord. in units of alat)
               a(1) = (   1.000000   0.000000   0.000000 )  
               a(2) = (  -0.500000   0.866025   0.000000 )  
               a(3) = (   0.000000   0.000000   7.987220 )  

     reciprocal axes: (cart. coord. in units 2 pi/alat)
               b(1) = (  1.000000  0.577350 -0.000000 )  
               b(2) = (  0.000000  1.154701  0.000000 )  
               b(3) = (  0.000000 -0.000000  0.125200 )  


     PseudoPot. # 1 for B  read from file:
     ./B_LDA.upf
     MD5 check sum: 65253fcade13fd046065f55d2370c246
     Pseudo is Norm-conserving, Zval =  3.0
     Generated using ONCVPSP code by D. R. Hamann
     Using radial grid of 1498 points,  4 beta functions with: 
                l(1) =   0
                l(2) =   0
                l(3) =   1
                l(4) =   1

     PseudoPot. # 2 for N  read from file:
     ./N_LDA.upf
     MD5 check sum: 7658f7615a25ff704775af13f841a702
     Pseudo is Norm-conserving, Zval =  5.0
     Generated using ONCVPSP code by D. R. Hamann
     Using radial grid of 1058 points,  4 beta functions with: 
                l(1) =   0
                l(2) =   0
                l(3) =   1
                l(4) =   1

     atomic species   valence    mass     pseudopotential
        B              3.00    11.00000     B ( 1.00)
        N              5.00    14.00000     N ( 1.00)

     12 Sym. Ops. (no inversion) found


                                    s                        frac. trans.

      isym =  1     identity                                     

 cryst.   s( 1) = (     1          0          0      )
                  (     0          1          0      )
                  (     0          0          1      )

 cart.    s( 1) = (  1.0000000  0.0000000  0.0000000 )
                  (  0.0000000  1.0000000  0.0000000 )
                  (  0.0000000  0.0000000  1.0000000 )


      isym =  2     180 deg rotation - cart. axis [0,1,0]        

 cryst.   s( 2) = (    -1          0          0      )
                  (     1          1          0      )
                  (     0          0         -1      )

 cart.    s( 2) = ( -1.0000000  0.0000000  0.0000000 )
                  (  0.0000000  1.0000000  0.0000000 )
                  (  0.0000000  0.0000000 -1.0000000 )


      isym =  3     120 deg rotation - cryst. axis [0,0,1]       

 cryst.   s( 3) = (     0          1          0      )
                  (    -1         -1          0      )
                  (     0          0          1      )

 cart.    s( 3) = ( -0.5000000 -0.8660254  0.0000000 )
                  (  0.8660254 -0.5000000  0.0000000 )
                  (  0.0000000  0.0000000  1.0000000 )


      isym =  4     120 deg rotation - cryst. axis [0,0,-1]      

 cryst.   s( 4) = (    -1         -1          0      )
                  (     1          0          0      )
                  (     0          0          1      )

 cart.    s( 4) = ( -0.5000000  0.8660254  0.0000000 )
                  ( -0.8660254 -0.5000000  0.0000000 )
                  (  0.0000000  0.0000000  1.0000000 )


      isym =  5     180 deg rotation - cryst. axis [1,-1,0]      

 cryst.   s( 5) = (     0         -1          0      )
                  (    -1          0          0      )
                  (     0          0         -1      )

 cart.    s( 5) = (  0.5000000 -0.8660254  0.0000000 )
                  ( -0.8660254 -0.5000000  0.0000000 )
                  (  0.0000000  0.0000000 -1.0000000 )


      isym =  6     180 deg rotation - cryst. axis [2,1,0]       

 cryst.   s( 6) = (     1          1          0      )
                  (     0         -1          0      )
                  (     0          0         -1      )

 cart.    s( 6) = (  0.5000000  0.8660254  0.0000000 )
                  (  0.8660254 -0.5000000  0.0000000 )
                  (  0.0000000  0.0000000 -1.0000000 )


      isym =  7     inv. 180 deg rotation - cart. axis [0,0,1]   

 cryst.   s( 7) = (     1          0          0      )
                  (     0          1          0      )
                  (     0          0         -1      )

 cart.    s( 7) = (  1.0000000  0.0000000  0.0000000 )
                  (  0.0000000  1.0000000  0.0000000 )
                  (  0.0000000  0.0000000 -1.0000000 )


      isym =  8     inv. 180 deg rotation - cart. axis [1,0,0]   

 cryst.   s( 8) = (    -1          0          0      )
                  (     1          1          0      )
                  (     0          0          1      )

 cart.    s( 8) = ( -1.0000000  0.0000000  0.0000000 )
                  (  0.0000000  1.0000000  0.0000000 )
                  (  0.0000000  0.0000000  1.0000000 )


      isym =  9     inv.  60 deg rotation - cryst. axis [0,0,1]  

 cryst.   s( 9) = (    -1         -1          0      )
                  (     1          0          0      )
                  (     0          0         -1      )

 cart.    s( 9) = ( -0.5000000  0.8660254  0.0000000 )
                  ( -0.8660254 -0.5000000  0.0000000 )
                  (  0.0000000  0.0000000 -1.0000000 )


      isym = 10     inv.  60 deg rotation - cryst. axis [0,0,-1] 

 cryst.   s(10) = (     0          1          0      )
                  (    -1         -1          0      )
                  (     0          0         -1      )

 cart.    s(10) = ( -0.5000000 -0.8660254  0.0000000 )
                  (  0.8660254 -0.5000000  0.0000000 )
                  (  0.0000000  0.0000000 -1.0000000 )


      isym = 11     inv. 180 deg rotation - cryst. axis [0,1,0]  

 cryst.   s(11) = (     1          1          0      )
                  (     0         -1          0      )
                  (     0          0          1      )

 cart.    s(11) = (  0.5000000  0.8660254  0.0000000 )
                  (  0.8660254 -0.5000000  0.0000000 )
                  (  0.0000000  0.0000000  1.0000000 )


      isym = 12     inv. 180 deg rotation - cryst. axis [1,1,0]  

 cryst.   s(12) = (     0         -1          0      )
                  (    -1          0          0      )
                  (     0          0          1      )

 cart.    s(12) = (  0.5000000 -0.8660254  0.0000000 )
                  ( -0.8660254 -0.5000000  0.0000000 )
                  (  0.0000000  0.0000000  1.0000000 )


   Cartesian axes

     site n.     atom                  positions (alat units)
         1           N   tau(   1) = (  -0.0000000   0.5773503   3.9936102  )
         2           B   tau(   2) = (   0.5000000   0.2886751   3.9936102  )

   Crystallographic axes

     site n.     atom                  positions (cryst. coord.)
         1           N   tau(   1) = (  0.3333333  0.6666667  0.5000000  )
         2           B   tau(   2) = (  0.6666667  0.3333333  0.5000000  )

     number of k points=  5760
                       cart. coord. in units 2pi/alat
        k(    1) = (   0.0001263   0.0002187   0.0000000), wk =   0.0003472
        k(    2) = (   0.0001263   0.0483312   0.0000000), wk =   0.0003472
        k(    3) = (   0.0417929   1.1308630   0.0000000), wk =   0.0003472
        k(    4) = (   0.9584596   0.5535127   0.0000000), wk =   0.0003472
        k(    5) = (   0.0001263   0.0964437   0.0000000), wk =   0.0003472
        k(    6) = (   0.0834596   1.1068067   0.0000000), wk =   0.0003472
        k(    7) = (   0.9167929   0.5294564   0.0000000), wk =   0.0003472
        k(    8) = (   0.0001263   0.1445563   0.0000000), wk =   0.0003472
        k(    9) = (   0.1251263   1.0827504   0.0000000), wk =   0.0003472
        k(   10) = (   0.8751263   0.5054002   0.0000000), wk =   0.0003472
        k(   11) = (   0.0001263   0.1926688   0.0000000), wk =   0.0003472
        k(   12) = (   0.1667929   1.0586942   0.0000000), wk =   0.0003472
        k(   13) = (   0.8334596   0.4813439   0.0000000), wk =   0.0003472
        k(   14) = (   0.0001263   0.2407813   0.0000000), wk =   0.0003472
        k(   15) = (   0.2084596   1.0346379   0.0000000), wk =   0.0003472
        k(   16) = (   0.7917929   0.4572877   0.0000000), wk =   0.0003472
        k(   17) = (   0.0001263   0.2888938   0.0000000), wk =   0.0003472
        k(   18) = (   0.2501263   1.0105817   0.0000000), wk =   0.0003472
        k(   19) = (   0.7501263   0.4332314   0.0000000), wk =   0.0003472
        k(   20) = (   0.0001263   0.3370063   0.0000000), wk =   0.0003472
        k(   21) = (   0.2917929   0.9865254   0.0000000), wk =   0.0003472
        k(   22) = (   0.7084596   0.4091751   0.0000000), wk =   0.0003472
        k(   23) = (   0.0001263   0.3851189   0.0000000), wk =   0.0003472
        k(   24) = (   0.3334596   0.9624691   0.0000000), wk =   0.0003472
        k(   25) = (   0.6667929   0.3851189   0.0000000), wk =   0.0003472
        k(   26) = (   0.0001263   0.4332314   0.0000000), wk =   0.0003472
        k(   27) = (   0.3751263   0.9384129   0.0000000), wk =   0.0003472
        k(   28) = (   0.6251263   0.3610626   0.0000000), wk =   0.0003472
        k(   29) = (   0.0001263   0.4813439   0.0000000), wk =   0.0003472
        k(   30) = (   0.4167929   0.9143566   0.0000000), wk =   0.0003472
        k(   31) = (   0.5834596   0.3370063   0.0000000), wk =   0.0003472
        k(   32) = (   0.0001263   0.5294564   0.0000000), wk =   0.0003472
        k(   33) = (   0.4584596   0.8903004   0.0000000), wk =   0.0003472
        k(   34) = (   0.5417929   0.3129501   0.0000000), wk =   0.0003472
        k(   35) = (   0.0001263   0.5775690   0.0000000), wk =   0.0003472
        k(   36) = (   0.5001263   0.8662441   0.0000000), wk =   0.0003472
        k(   37) = (   0.5001263   0.2888938   0.0000000), wk =   0.0003472
        k(   38) = (   0.0001263   0.6256815   0.0000000), wk =   0.0003472
        k(   39) = (   0.5417929   0.8421878   0.0000000), wk =   0.0003472
        k(   40) = (   0.4584596   0.2648376   0.0000000), wk =   0.0003472
        k(   41) = (   0.0001263   0.6737940   0.0000000), wk =   0.0003472
        k(   42) = (   0.5834596   0.8181316   0.0000000), wk =   0.0003472
        k(   43) = (   0.4167929   0.2407813   0.0000000), wk =   0.0003472
        k(   44) = (   0.0001263   0.7219065   0.0000000), wk =   0.0003472
        k(   45) = (   0.6251263   0.7940753   0.0000000), wk =   0.0003472
        k(   46) = (   0.3751263   0.2167250   0.0000000), wk =   0.0003472
        k(   47) = (   0.0001263   0.7700190   0.0000000), wk =   0.0003472
        k(   48) = (   0.6667929   0.7700190   0.0000000), wk =   0.0003472
        k(   49) = (   0.3334596   0.1926688   0.0000000), wk =   0.0003472
        k(   50) = (   0.0001263   0.8181316   0.0000000), wk =   0.0003472
        k(   51) = (   0.7084596   0.7459628   0.0000000), wk =   0.0003472
        k(   52) = (   0.2917929   0.1686125   0.0000000), wk =   0.0003472
        k(   53) = (   0.0001263   0.8662441   0.0000000), wk =   0.0003472
        k(   54) = (   0.7501263   0.7219065   0.0000000), wk =   0.0003472
        k(   55) = (   0.2501263   0.1445563   0.0000000), wk =   0.0003472
        k(   56) = (   0.0001263   0.9143566   0.0000000), wk =   0.0003472
        k(   57) = (   0.7917929   0.6978503   0.0000000), wk =   0.0003472
        k(   58) = (   0.2084596   0.1205000   0.0000000), wk =   0.0003472
        k(   59) = (   0.0001263   0.9624691   0.0000000), wk =   0.0003472
        k(   60) = (   0.8334596   0.6737940   0.0000000), wk =   0.0003472
        k(   61) = (   0.1667929   0.0964437   0.0000000), wk =   0.0003472
        k(   62) = (   0.0001263   1.0105817   0.0000000), wk =   0.0003472
        k(   63) = (   0.8751263   0.6497377   0.0000000), wk =   0.0003472
        k(   64) = (   0.1251263   0.0723875   0.0000000), wk =   0.0003472
        k(   65) = (   0.0001263   1.0586942   0.0000000), wk =   0.0003472
        k(   66) = (   0.9167929   0.6256815   0.0000000), wk =   0.0003472
        k(   67) = (   0.0834596   0.0483312   0.0000000), wk =   0.0003472
        k(   68) = (   0.0001263   1.1068067   0.0000000), wk =   0.0003472
        k(   69) = (   0.9584596   0.6016252   0.0000000), wk =   0.0003472
        k(   70) = (   0.0417929   0.0242749   0.0000000), wk =   0.0003472
        k(   71) = (   0.0417929   0.0723875   0.0000000), wk =   0.0003472
        k(   72) = (   0.9584596   0.6497377   0.0000000), wk =   0.0003472
        k(   73) = (   0.0417929   1.0827504   0.0000000), wk =   0.0003472
        k(   74) = (   0.9167929   0.5775690   0.0000000), wk =   0.0003472
        k(   75) = (   0.9584596   1.6601007   0.0000000), wk =   0.0003472
        k(   76) = (   0.0834596   1.1549192   0.0000000), wk =   0.0003472
        k(   77) = (   0.0417929   0.1205000   0.0000000), wk =   0.0003472
        k(   78) = (   0.9584596   0.6978503   0.0000000), wk =   0.0003472
        k(   79) = (   0.0834596   1.0586942   0.0000000), wk =   0.0003472
        k(   80) = (   0.8751263   0.5535127   0.0000000), wk =   0.0003472
        k(   81) = (   0.9167929   1.6360444   0.0000000), wk =   0.0003472
        k(   82) = (   0.1251263   1.1308630   0.0000000), wk =   0.0003472
        k(   83) = (   0.0417929   0.1686125   0.0000000), wk =   0.0003472
        k(   84) = (   0.9584596   0.7459628   0.0000000), wk =   0.0003472
        k(   85) = (   0.1251263   1.0346379   0.0000000), wk =   0.0003472
        k(   86) = (   0.8334596   0.5294564   0.0000000), wk =   0.0003472
        k(   87) = (   0.8751263   1.6119882   0.0000000), wk =   0.0003472
        k(   88) = (   0.1667929   1.1068067   0.0000000), wk =   0.0003472
        k(   89) = (   0.0417929   0.2167250   0.0000000), wk =   0.0003472
        k(   90) = (   0.9584596   0.7940753   0.0000000), wk =   0.0003472
        k(   91) = (   0.1667929   1.0105817   0.0000000), wk =   0.0003472
        k(   92) = (   0.7917929   0.5054002   0.0000000), wk =   0.0003472
        k(   93) = (   0.8334596   1.5879319   0.0000000), wk =   0.0003472
        k(   94) = (   0.2084596   1.0827504   0.0000000), wk =   0.0003472
        k(   95) = (   0.0417929   0.2648376   0.0000000), wk =   0.0003472
        k(   96) = (   0.9584596   0.8421878   0.0000000), wk =   0.0003472
        k(   97) = (   0.2084596   0.9865254   0.0000000), wk =   0.0003472
        k(   98) = (   0.7501263   0.4813439   0.0000000), wk =   0.0003472
        k(   99) = (   0.7917929   1.5638757   0.0000000), wk =   0.0003472
        k(  100) = (   0.2501263   1.0586942   0.0000000), wk =   0.0003472
        k(  101) = (   0.0417929   0.3129501   0.0000000), wk =   0.0003472
        k(  102) = (   0.9584596   0.8903004   0.0000000), wk =   0.0003472
        k(  103) = (   0.2501263   0.9624691   0.0000000), wk =   0.0003472
        k(  104) = (   0.7084596   0.4572877   0.0000000), wk =   0.0003472
        k(  105) = (   0.7501263   1.5398194   0.0000000), wk =   0.0003472
        k(  106) = (   0.2917929   1.0346379   0.0000000), wk =   0.0003472
        k(  107) = (   0.0417929   0.3610626   0.0000000), wk =   0.0003472
        k(  108) = (   0.9584596   0.9384129   0.0000000), wk =   0.0003472
        k(  109) = (   0.2917929   0.9384129   0.0000000), wk =   0.0003472
        k(  110) = (   0.6667929   0.4332314   0.0000000), wk =   0.0003472
        k(  111) = (   0.7084596   1.5157631   0.0000000), wk =   0.0003472
        k(  112) = (   0.3334596   1.0105817   0.0000000), wk =   0.0003472
        k(  113) = (   0.0417929   0.4091751   0.0000000), wk =   0.0003472
        k(  114) = (   0.9584596   0.9865254   0.0000000), wk =   0.0003472
        k(  115) = (   0.3334596   0.9143566   0.0000000), wk =   0.0003472
        k(  116) = (   0.6251263   0.4091751   0.0000000), wk =   0.0003472
        k(  117) = (   0.6667929   1.4917069   0.0000000), wk =   0.0003472
        k(  118) = (   0.3751263   0.9865254   0.0000000), wk =   0.0003472
        k(  119) = (   0.0417929   0.4572877   0.0000000), wk =   0.0003472
        k(  120) = (   0.9584596   1.0346379   0.0000000), wk =   0.0003472
        k(  121) = (   0.3751263   0.8903004   0.0000000), wk =   0.0003472
        k(  122) = (   0.5834596   0.3851189   0.0000000), wk =   0.0003472
        k(  123) = (   0.6251263   1.4676506   0.0000000), wk =   0.0003472
        k(  124) = (   0.4167929   0.9624691   0.0000000), wk =   0.0003472
        k(  125) = (   0.0417929   0.5054002   0.0000000), wk =   0.0003472
        k(  126) = (   0.9584596   1.0827504   0.0000000), wk =   0.0003472
        k(  127) = (   0.4167929   0.8662441   0.0000000), wk =   0.0003472
        k(  128) = (   0.5417929   0.3610626   0.0000000), wk =   0.0003472
        k(  129) = (   0.5834596   1.4435944   0.0000000), wk =   0.0003472
        k(  130) = (   0.4584596   0.9384129   0.0000000), wk =   0.0003472
        k(  131) = (   0.0417929   0.5535127   0.0000000), wk =   0.0003472
        k(  132) = (   0.9584596   1.1308630   0.0000000), wk =   0.0003472
        k(  133) = (   0.4584596   0.8421878   0.0000000), wk =   0.0003472
        k(  134) = (   0.5001263   0.3370063   0.0000000), wk =   0.0003472
        k(  135) = (   0.5417929   1.4195381   0.0000000), wk =   0.0003472
        k(  136) = (   0.5001263   0.9143566   0.0000000), wk =   0.0003472
        k(  137) = (   0.0417929   0.6016252   0.0000000), wk =   0.0003472
        k(  138) = (   0.9584596   1.1789755   0.0000000), wk =   0.0003472
        k(  139) = (   0.5001263   0.8181316   0.0000000), wk =   0.0003472
        k(  140) = (   0.4584596   0.3129501   0.0000000), wk =   0.0003472
        k(  141) = (   0.5001263   1.3954818   0.0000000), wk =   0.0003472
        k(  142) = (   0.5417929   0.8903004   0.0000000), wk =   0.0003472
        k(  143) = (   0.0417929   0.6497377   0.0000000), wk =   0.0003472
        k(  144) = (   0.9584596   1.2270880   0.0000000), wk =   0.0003472
        k(  145) = (   0.5417929   0.7940753   0.0000000), wk =   0.0003472
        k(  146) = (   0.4167929   0.2888938   0.0000000), wk =   0.0003472
        k(  147) = (   0.4584596   1.3714256   0.0000000), wk =   0.0003472
        k(  148) = (   0.5834596   0.8662441   0.0000000), wk =   0.0003472
        k(  149) = (   0.0417929   0.6978503   0.0000000), wk =   0.0003472
        k(  150) = (   0.9584596   1.2752005   0.0000000), wk =   0.0003472
        k(  151) = (   0.5834596   0.7700190   0.0000000), wk =   0.0003472
        k(  152) = (   0.3751263   0.2648376   0.0000000), wk =   0.0003472
        k(  153) = (   0.4167929   1.3473693   0.0000000), wk =   0.0003472
        k(  154) = (   0.6251263   0.8421878   0.0000000), wk =   0.0003472
        k(  155) = (   0.0417929   0.7459628   0.0000000), wk =   0.0003472
        k(  156) = (   0.9584596   1.3233131   0.0000000), wk =   0.0003472
        k(  157) = (   0.6251263   0.7459628   0.0000000), wk =   0.0003472
        k(  158) = (   0.3334596   0.2407813   0.0000000), wk =   0.0003472
        k(  159) = (   0.3751263   1.3233131   0.0000000), wk =   0.0003472
        k(  160) = (   0.6667929   0.8181316   0.0000000), wk =   0.0003472
        k(  161) = (   0.0417929   0.7940753   0.0000000), wk =   0.0003472
        k(  162) = (   0.9584596   1.3714256   0.0000000), wk =   0.0003472
        k(  163) = (   0.6667929   0.7219065   0.0000000), wk =   0.0003472
        k(  164) = (   0.2917929   0.2167250   0.0000000), wk =   0.0003472
        k(  165) = (   0.3334596   1.2992568   0.0000000), wk =   0.0003472
        k(  166) = (   0.7084596   0.7940753   0.0000000), wk =   0.0003472
        k(  167) = (   0.0417929   0.8421878   0.0000000), wk =   0.0003472
        k(  168) = (   0.9584596   1.4195381   0.0000000), wk =   0.0003472
        k(  169) = (   0.7084596   0.6978503   0.0000000), wk =   0.0003472
        k(  170) = (   0.2501263   0.1926688   0.0000000), wk =   0.0003472
        k(  171) = (   0.2917929   1.2752005   0.0000000), wk =   0.0003472
        k(  172) = (   0.7501263   0.7700190   0.0000000), wk =   0.0003472
        k(  173) = (   0.0417929   0.8903004   0.0000000), wk =   0.0003472
        k(  174) = (   0.9584596   1.4676506   0.0000000), wk =   0.0003472
        k(  175) = (   0.7501263   0.6737940   0.0000000), wk =   0.0003472
        k(  176) = (   0.2084596   0.1686125   0.0000000), wk =   0.0003472
        k(  177) = (   0.2501263   1.2511443   0.0000000), wk =   0.0003472
        k(  178) = (   0.7917929   0.7459628   0.0000000), wk =   0.0003472
        k(  179) = (   0.0417929   0.9384129   0.0000000), wk =   0.0003472
        k(  180) = (   0.9584596   1.5157631   0.0000000), wk =   0.0003472
        k(  181) = (   0.7917929   0.6497377   0.0000000), wk =   0.0003472
        k(  182) = (   0.1667929   0.1445563   0.0000000), wk =   0.0003472
        k(  183) = (   0.2084596   1.2270880   0.0000000), wk =   0.0003472
        k(  184) = (   0.8334596   0.7219065   0.0000000), wk =   0.0003472
        k(  185) = (   0.0417929   0.9865254   0.0000000), wk =   0.0003472
        k(  186) = (   0.9584596   1.5638757   0.0000000), wk =   0.0003472
        k(  187) = (   0.8334596   0.6256815   0.0000000), wk =   0.0003472
        k(  188) = (   0.1251263   0.1205000   0.0000000), wk =   0.0003472
        k(  189) = (   0.1667929   1.2030317   0.0000000), wk =   0.0003472
        k(  190) = (   0.8751263   0.6978503   0.0000000), wk =   0.0003472
        k(  191) = (   0.0417929   1.0346379   0.0000000), wk =   0.0003472
        k(  192) = (   0.9584596   1.6119882   0.0000000), wk =   0.0003472
        k(  193) = (   0.8751263   0.6016252   0.0000000), wk =   0.0003472
        k(  194) = (   0.0834596   0.0964437   0.0000000), wk =   0.0003472
        k(  195) = (   0.1251263   1.1789755   0.0000000), wk =   0.0003472
        k(  196) = (   0.9167929   0.6737940   0.0000000), wk =   0.0003472
        k(  197) = (   0.0834596   0.1445563   0.0000000), wk =   0.0003472
        k(  198) = (   0.9167929   0.7219065   0.0000000), wk =   0.0003472
        k(  199) = (   0.0834596   1.0105817   0.0000000), wk =   0.0003472
        k(  200) = (   0.8334596   0.5775690   0.0000000), wk =   0.0003472
        k(  201) = (   0.9167929   1.5879319   0.0000000), wk =   0.0003472
        k(  202) = (   0.1667929   1.1549192   0.0000000), wk =   0.0003472
        k(  203) = (   0.0834596   0.1926688   0.0000000), wk =   0.0003472
        k(  204) = (   0.9167929   0.7700190   0.0000000), wk =   0.0003472
        k(  205) = (   0.1251263   0.9865254   0.0000000), wk =   0.0003472
        k(  206) = (   0.7917929   0.5535127   0.0000000), wk =   0.0003472
        k(  207) = (   0.8751263   1.5638757   0.0000000), wk =   0.0003472
        k(  208) = (   0.2084596   1.1308630   0.0000000), wk =   0.0003472
        k(  209) = (   0.0834596   0.2407813   0.0000000), wk =   0.0003472
        k(  210) = (   0.9167929   0.8181316   0.0000000), wk =   0.0003472
        k(  211) = (   0.1667929   0.9624691   0.0000000), wk =   0.0003472
        k(  212) = (   0.7501263   0.5294564   0.0000000), wk =   0.0003472
        k(  213) = (   0.8334596   1.5398194   0.0000000), wk =   0.0003472
        k(  214) = (   0.2501263   1.1068067   0.0000000), wk =   0.0003472
        k(  215) = (   0.0834596   0.2888938   0.0000000), wk =   0.0003472
        k(  216) = (   0.9167929   0.8662441   0.0000000), wk =   0.0003472
        k(  217) = (   0.2084596   0.9384129   0.0000000), wk =   0.0003472
        k(  218) = (   0.7084596   0.5054002   0.0000000), wk =   0.0003472
        k(  219) = (   0.7917929   1.5157631   0.0000000), wk =   0.0003472
        k(  220) = (   0.2917929   1.0827504   0.0000000), wk =   0.0003472
        k(  221) = (   0.0834596   0.3370063   0.0000000), wk =   0.0003472
        k(  222) = (   0.9167929   0.9143566   0.0000000), wk =   0.0003472
        k(  223) = (   0.2501263   0.9143566   0.0000000), wk =   0.0003472
        k(  224) = (   0.6667929   0.4813439   0.0000000), wk =   0.0003472
        k(  225) = (   0.7501263   1.4917069   0.0000000), wk =   0.0003472
        k(  226) = (   0.3334596   1.0586942   0.0000000), wk =   0.0003472
        k(  227) = (   0.0834596   0.3851189   0.0000000), wk =   0.0003472
        k(  228) = (   0.9167929   0.9624691   0.0000000), wk =   0.0003472
        k(  229) = (   0.2917929   0.8903004   0.0000000), wk =   0.0003472
        k(  230) = (   0.6251263   0.4572876   0.0000000), wk =   0.0003472
        k(  231) = (   0.7084596   1.4676506   0.0000000), wk =   0.0003472
        k(  232) = (   0.3751263   1.0346379   0.0000000), wk =   0.0003472
        k(  233) = (   0.0834596   0.4332314   0.0000000), wk =   0.0003472
        k(  234) = (   0.9167929   1.0105817   0.0000000), wk =   0.0003472
        k(  235) = (   0.3334596   0.8662441   0.0000000), wk =   0.0003472
        k(  236) = (   0.5834596   0.4332314   0.0000000), wk =   0.0003472
        k(  237) = (   0.6667929   1.4435944   0.0000000), wk =   0.0003472
        k(  238) = (   0.4167929   1.0105817   0.0000000), wk =   0.0003472
        k(  239) = (   0.0834596   0.4813439   0.0000000), wk =   0.0003472
        k(  240) = (   0.9167929   1.0586942   0.0000000), wk =   0.0003472
        k(  241) = (   0.3751263   0.8421878   0.0000000), wk =   0.0003472
        k(  242) = (   0.5417929   0.4091751   0.0000000), wk =   0.0003472
        k(  243) = (   0.6251263   1.4195381   0.0000000), wk =   0.0003472
        k(  244) = (   0.4584596   0.9865254   0.0000000), wk =   0.0003472
        k(  245) = (   0.0834596   0.5294564   0.0000000), wk =   0.0003472
        k(  246) = (   0.9167929   1.1068067   0.0000000), wk =   0.0003472
        k(  247) = (   0.4167929   0.8181316   0.0000000), wk =   0.0003472
        k(  248) = (   0.5001263   0.3851189   0.0000000), wk =   0.0003472
        k(  249) = (   0.5834596   1.3954818   0.0000000), wk =   0.0003472
        k(  250) = (   0.5001263   0.9624691   0.0000000), wk =   0.0003472
        k(  251) = (   0.0834596   0.5775690   0.0000000), wk =   0.0003472
        k(  252) = (   0.9167929   1.1549192   0.0000000), wk =   0.0003472
        k(  253) = (   0.4584596   0.7940753   0.0000000), wk =   0.0003472
        k(  254) = (   0.4584596   0.3610626   0.0000000), wk =   0.0003472
        k(  255) = (   0.5417929   1.3714256   0.0000000), wk =   0.0003472
        k(  256) = (   0.5417929   0.9384129   0.0000000), wk =   0.0003472
        k(  257) = (   0.0834596   0.6256815   0.0000000), wk =   0.0003472
        k(  258) = (   0.9167929   1.2030317   0.0000000), wk =   0.0003472
        k(  259) = (   0.5001263   0.7700190   0.0000000), wk =   0.0003472
        k(  260) = (   0.4167929   0.3370063   0.0000000), wk =   0.0003472
        k(  261) = (   0.5001263   1.3473693   0.0000000), wk =   0.0003472
        k(  262) = (   0.5834596   0.9143566   0.0000000), wk =   0.0003472
        k(  263) = (   0.0834596   0.6737940   0.0000000), wk =   0.0003472
        k(  264) = (   0.9167929   1.2511443   0.0000000), wk =   0.0003472
        k(  265) = (   0.5417929   0.7459628   0.0000000), wk =   0.0003472
        k(  266) = (   0.3751263   0.3129501   0.0000000), wk =   0.0003472
        k(  267) = (   0.4584596   1.3233131   0.0000000), wk =   0.0003472
        k(  268) = (   0.6251263   0.8903004   0.0000000), wk =   0.0003472
        k(  269) = (   0.0834596   0.7219065   0.0000000), wk =   0.0003472
        k(  270) = (   0.9167929   1.2992568   0.0000000), wk =   0.0003472
        k(  271) = (   0.5834596   0.7219065   0.0000000), wk =   0.0003472
        k(  272) = (   0.3334596   0.2888938   0.0000000), wk =   0.0003472
        k(  273) = (   0.4167929   1.2992568   0.0000000), wk =   0.0003472
        k(  274) = (   0.6667929   0.8662441   0.0000000), wk =   0.0003472
        k(  275) = (   0.0834596   0.7700190   0.0000000), wk =   0.0003472
        k(  276) = (   0.9167929   1.3473693   0.0000000), wk =   0.0003472
        k(  277) = (   0.6251263   0.6978503   0.0000000), wk =   0.0003472
        k(  278) = (   0.2917929   0.2648376   0.0000000), wk =   0.0003472
        k(  279) = (   0.3751263   1.2752005   0.0000000), wk =   0.0003472
        k(  280) = (   0.7084596   0.8421878   0.0000000), wk =   0.0003472
        k(  281) = (   0.0834596   0.8181316   0.0000000), wk =   0.0003472
        k(  282) = (   0.9167929   1.3954818   0.0000000), wk =   0.0003472
        k(  283) = (   0.6667929   0.6737940   0.0000000), wk =   0.0003472
        k(  284) = (   0.2501263   0.2407813   0.0000000), wk =   0.0003472
        k(  285) = (   0.3334596   1.2511443   0.0000000), wk =   0.0003472
        k(  286) = (   0.7501263   0.8181316   0.0000000), wk =   0.0003472
        k(  287) = (   0.0834596   0.8662441   0.0000000), wk =   0.0003472
        k(  288) = (   0.9167929   1.4435944   0.0000000), wk =   0.0003472
        k(  289) = (   0.7084596   0.6497377   0.0000000), wk =   0.0003472
        k(  290) = (   0.2084596   0.2167250   0.0000000), wk =   0.0003472
        k(  291) = (   0.2917929   1.2270880   0.0000000), wk =   0.0003472
        k(  292) = (   0.7917929   0.7940753   0.0000000), wk =   0.0003472
        k(  293) = (   0.0834596   0.9143566   0.0000000), wk =   0.0003472
        k(  294) = (   0.9167929   1.4917069   0.0000000), wk =   0.0003472
        k(  295) = (   0.7501263   0.6256815   0.0000000), wk =   0.0003472
        k(  296) = (   0.1667929   0.1926688   0.0000000), wk =   0.0003472
        k(  297) = (   0.2501263   1.2030317   0.0000000), wk =   0.0003472
        k(  298) = (   0.8334596   0.7700190   0.0000000), wk =   0.0003472
        k(  299) = (   0.0834596   0.9624691   0.0000000), wk =   0.0003472
        k(  300) = (   0.9167929   1.5398194   0.0000000), wk =   0.0003472
        k(  301) = (   0.7917929   0.6016252   0.0000000), wk =   0.0003472
        k(  302) = (   0.1251263   0.1686125   0.0000000), wk =   0.0003472
        k(  303) = (   0.2084596   1.1789755   0.0000000), wk =   0.0003472
        k(  304) = (   0.8751263   0.7459628   0.0000000), wk =   0.0003472
        k(  305) = (   0.1251263   0.2167250   0.0000000), wk =   0.0003472
        k(  306) = (   0.8751263   0.7940753   0.0000000), wk =   0.0003472
        k(  307) = (   0.1251263   0.9384129   0.0000000), wk =   0.0003472
        k(  308) = (   0.7501263   0.5775690   0.0000000), wk =   0.0003472
        k(  309) = (   0.8751263   1.5157631   0.0000000), wk =   0.0003472
        k(  310) = (   0.2501263   1.1549192   0.0000000), wk =   0.0003472
        k(  311) = (   0.1251263   0.2648376   0.0000000), wk =   0.0003472
        k(  312) = (   0.8751263   0.8421878   0.0000000), wk =   0.0003472
        k(  313) = (   0.1667929   0.9143566   0.0000000), wk =   0.0003472
        k(  314) = (   0.7084596   0.5535127   0.0000000), wk =   0.0003472
        k(  315) = (   0.8334596   1.4917069   0.0000000), wk =   0.0003472
        k(  316) = (   0.2917929   1.1308630   0.0000000), wk =   0.0003472
        k(  317) = (   0.1251263   0.3129501   0.0000000), wk =   0.0003472
        k(  318) = (   0.8751263   0.8903004   0.0000000), wk =   0.0003472
        k(  319) = (   0.2084596   0.8903004   0.0000000), wk =   0.0003472
        k(  320) = (   0.6667929   0.5294564   0.0000000), wk =   0.0003472
        k(  321) = (   0.7917929   1.4676506   0.0000000), wk =   0.0003472
        k(  322) = (   0.3334596   1.1068067   0.0000000), wk =   0.0003472
        k(  323) = (   0.1251263   0.3610626   0.0000000), wk =   0.0003472
        k(  324) = (   0.8751263   0.9384129   0.0000000), wk =   0.0003472
        k(  325) = (   0.2501263   0.8662441   0.0000000), wk =   0.0003472
        k(  326) = (   0.6251263   0.5054002   0.0000000), wk =   0.0003472
        k(  327) = (   0.7501263   1.4435944   0.0000000), wk =   0.0003472
        k(  328) = (   0.3751263   1.0827504   0.0000000), wk =   0.0003472
        k(  329) = (   0.1251263   0.4091751   0.0000000), wk =   0.0003472
        k(  330) = (   0.8751263   0.9865254   0.0000000), wk =   0.0003472
        k(  331) = (   0.2917929   0.8421878   0.0000000), wk =   0.0003472
        k(  332) = (   0.5834596   0.4813439   0.0000000), wk =   0.0003472
        k(  333) = (   0.7084596   1.4195381   0.0000000), wk =   0.0003472
        k(  334) = (   0.4167929   1.0586942   0.0000000), wk =   0.0003472
        k(  335) = (   0.1251263   0.4572876   0.0000000), wk =   0.0003472
        k(  336) = (   0.8751263   1.0346379   0.0000000), wk =   0.0003472
        k(  337) = (   0.3334596   0.8181316   0.0000000), wk =   0.0003472
        k(  338) = (   0.5417929   0.4572877   0.0000000), wk =   0.0003472
        k(  339) = (   0.6667929   1.3954818   0.0000000), wk =   0.0003472
        k(  340) = (   0.4584596   1.0346379   0.0000000), wk =   0.0003472
        k(  341) = (   0.1251263   0.5054002   0.0000000), wk =   0.0003472
        k(  342) = (   0.8751263   1.0827504   0.0000000), wk =   0.0003472
        k(  343) = (   0.3751263   0.7940753   0.0000000), wk =   0.0003472
        k(  344) = (   0.5001263   0.4332314   0.0000000), wk =   0.0003472
        k(  345) = (   0.6251263   1.3714256   0.0000000), wk =   0.0003472
        k(  346) = (   0.5001263   1.0105817   0.0000000), wk =   0.0003472
        k(  347) = (   0.1251263   0.5535127   0.0000000), wk =   0.0003472
        k(  348) = (   0.8751263   1.1308630   0.0000000), wk =   0.0003472
        k(  349) = (   0.4167929   0.7700190   0.0000000), wk =   0.0003472
        k(  350) = (   0.4584596   0.4091751   0.0000000), wk =   0.0003472
        k(  351) = (   0.5834596   1.3473693   0.0000000), wk =   0.0003472
        k(  352) = (   0.5417929   0.9865254   0.0000000), wk =   0.0003472
        k(  353) = (   0.1251263   0.6016252   0.0000000), wk =   0.0003472
        k(  354) = (   0.8751263   1.1789755   0.0000000), wk =   0.0003472
        k(  355) = (   0.4584596   0.7459628   0.0000000), wk =   0.0003472
        k(  356) = (   0.4167929   0.3851189   0.0000000), wk =   0.0003472
        k(  357) = (   0.5417929   1.3233131   0.0000000), wk =   0.0003472
        k(  358) = (   0.5834596   0.9624691   0.0000000), wk =   0.0003472
        k(  359) = (   0.1251263   0.6497377   0.0000000), wk =   0.0003472
        k(  360) = (   0.8751263   1.2270880   0.0000000), wk =   0.0003472
        k(  361) = (   0.5001263   0.7219065   0.0000000), wk =   0.0003472
        k(  362) = (   0.3751263   0.3610626   0.0000000), wk =   0.0003472
        k(  363) = (   0.5001263   1.2992568   0.0000000), wk =   0.0003472
        k(  364) = (   0.6251263   0.9384129   0.0000000), wk =   0.0003472
        k(  365) = (   0.1251263   0.6978503   0.0000000), wk =   0.0003472
        k(  366) = (   0.8751263   1.2752005   0.0000000), wk =   0.0003472
        k(  367) = (   0.5417929   0.6978503   0.0000000), wk =   0.0003472
        k(  368) = (   0.3334596   0.3370063   0.0000000), wk =   0.0003472
        k(  369) = (   0.4584596   1.2752005   0.0000000), wk =   0.0003472
        k(  370) = (   0.6667929   0.9143566   0.0000000), wk =   0.0003472
        k(  371) = (   0.1251263   0.7459628   0.0000000), wk =   0.0003472
        k(  372) = (   0.8751263   1.3233131   0.0000000), wk =   0.0003472
        k(  373) = (   0.5834596   0.6737940   0.0000000), wk =   0.0003472
        k(  374) = (   0.2917929   0.3129501   0.0000000), wk =   0.0003472
        k(  375) = (   0.4167929   1.2511443   0.0000000), wk =   0.0003472
        k(  376) = (   0.7084596   0.8903004   0.0000000), wk =   0.0003472
        k(  377) = (   0.1251263   0.7940753   0.0000000), wk =   0.0003472
        k(  378) = (   0.8751263   1.3714256   0.0000000), wk =   0.0003472
        k(  379) = (   0.6251263   0.6497377   0.0000000), wk =   0.0003472
        k(  380) = (   0.2501263   0.2888938   0.0000000), wk =   0.0003472
        k(  381) = (   0.3751263   1.2270880   0.0000000), wk =   0.0003472
        k(  382) = (   0.7501263   0.8662441   0.0000000), wk =   0.0003472
        k(  383) = (   0.1251263   0.8421878   0.0000000), wk =   0.0003472
        k(  384) = (   0.8751263   1.4195381   0.0000000), wk =   0.0003472
        k(  385) = (   0.6667929   0.6256815   0.0000000), wk =   0.0003472
        k(  386) = (   0.2084596   0.2648376   0.0000000), wk =   0.0003472
        k(  387) = (   0.3334596   1.2030317   0.0000000), wk =   0.0003472
        k(  388) = (   0.7917929   0.8421878   0.0000000), wk =   0.0003472
        k(  389) = (   0.1251263   0.8903004   0.0000000), wk =   0.0003472
        k(  390) = (   0.8751263   1.4676506   0.0000000), wk =   0.0003472
        k(  391) = (   0.7084596   0.6016252   0.0000000), wk =   0.0003472
        k(  392) = (   0.1667929   0.2407813   0.0000000), wk =   0.0003472
        k(  393) = (   0.2917929   1.1789755   0.0000000), wk =   0.0003472
        k(  394) = (   0.8334596   0.8181316   0.0000000), wk =   0.0003472
        k(  395) = (   0.1667929   0.2888938   0.0000000), wk =   0.0003472
        k(  396) = (   0.8334596   0.8662441   0.0000000), wk =   0.0003472
        k(  397) = (   0.1667929   0.8662441   0.0000000), wk =   0.0003472
        k(  398) = (   0.6667929   0.5775690   0.0000000), wk =   0.0003472
        k(  399) = (   0.8334596   1.4435944   0.0000000), wk =   0.0003472
        k(  400) = (   0.3334596   1.1549192   0.0000000), wk =   0.0003472
        k(  401) = (   0.1667929   0.3370063   0.0000000), wk =   0.0003472
        k(  402) = (   0.8334596   0.9143566   0.0000000), wk =   0.0003472
        k(  403) = (   0.2084596   0.8421878   0.0000000), wk =   0.0003472
        k(  404) = (   0.6251263   0.5535127   0.0000000), wk =   0.0003472
        k(  405) = (   0.7917929   1.4195381   0.0000000), wk =   0.0003472
        k(  406) = (   0.3751263   1.1308630   0.0000000), wk =   0.0003472
        k(  407) = (   0.1667929   0.3851189   0.0000000), wk =   0.0003472
        k(  408) = (   0.8334596   0.9624691   0.0000000), wk =   0.0003472
        k(  409) = (   0.2501263   0.8181316   0.0000000), wk =   0.0003472
        k(  410) = (   0.5834596   0.5294564   0.0000000), wk =   0.0003472
        k(  411) = (   0.7501263   1.3954818   0.0000000), wk =   0.0003472
        k(  412) = (   0.4167929   1.1068067   0.0000000), wk =   0.0003472
        k(  413) = (   0.1667929   0.4332314   0.0000000), wk =   0.0003472
        k(  414) = (   0.8334596   1.0105817   0.0000000), wk =   0.0003472
        k(  415) = (   0.2917929   0.7940753   0.0000000), wk =   0.0003472
        k(  416) = (   0.5417929   0.5054002   0.0000000), wk =   0.0003472
        k(  417) = (   0.7084596   1.3714256   0.0000000), wk =   0.0003472
        k(  418) = (   0.4584596   1.0827504   0.0000000), wk =   0.0003472
        k(  419) = (   0.1667929   0.4813439   0.0000000), wk =   0.0003472
        k(  420) = (   0.8334596   1.0586942   0.0000000), wk =   0.0003472
        k(  421) = (   0.3334596   0.7700190   0.0000000), wk =   0.0003472
        k(  422) = (   0.5001263   0.4813439   0.0000000), wk =   0.0003472
        k(  423) = (   0.6667929   1.3473693   0.0000000), wk =   0.0003472
        k(  424) = (   0.5001263   1.0586942   0.0000000), wk =   0.0003472
        k(  425) = (   0.1667929   0.5294564   0.0000000), wk =   0.0003472
        k(  426) = (   0.8334596   1.1068067   0.0000000), wk =   0.0003472
        k(  427) = (   0.3751263   0.7459628   0.0000000), wk =   0.0003472
        k(  428) = (   0.4584596   0.4572877   0.0000000), wk =   0.0003472
        k(  429) = (   0.6251263   1.3233131   0.0000000), wk =   0.0003472
        k(  430) = (   0.5417929   1.0346379   0.0000000), wk =   0.0003472
        k(  431) = (   0.1667929   0.5775690   0.0000000), wk =   0.0003472
        k(  432) = (   0.8334596   1.1549192   0.0000000), wk =   0.0003472
        k(  433) = (   0.4167929   0.7219065   0.0000000), wk =   0.0003472
        k(  434) = (   0.4167929   0.4332314   0.0000000), wk =   0.0003472
        k(  435) = (   0.5834596   1.2992568   0.0000000), wk =   0.0003472
        k(  436) = (   0.5834596   1.0105817   0.0000000), wk =   0.0003472
        k(  437) = (   0.1667929   0.6256815   0.0000000), wk =   0.0003472
        k(  438) = (   0.8334596   1.2030317   0.0000000), wk =   0.0003472
        k(  439) = (   0.4584596   0.6978503   0.0000000), wk =   0.0003472
        k(  440) = (   0.3751263   0.4091751   0.0000000), wk =   0.0003472
        k(  441) = (   0.5417929   1.2752005   0.0000000), wk =   0.0003472
        k(  442) = (   0.6251263   0.9865254   0.0000000), wk =   0.0003472
        k(  443) = (   0.1667929   0.6737940   0.0000000), wk =   0.0003472
        k(  444) = (   0.8334596   1.2511443   0.0000000), wk =   0.0003472
        k(  445) = (   0.5001263   0.6737940   0.0000000), wk =   0.0003472
        k(  446) = (   0.3334596   0.3851189   0.0000000), wk =   0.0003472
        k(  447) = (   0.5001263   1.2511443   0.0000000), wk =   0.0003472
        k(  448) = (   0.6667929   0.9624691   0.0000000), wk =   0.0003472
        k(  449) = (   0.1667929   0.7219065   0.0000000), wk =   0.0003472
        k(  450) = (   0.8334596   1.2992568   0.0000000), wk =   0.0003472
        k(  451) = (   0.5417929   0.6497377   0.0000000), wk =   0.0003472
        k(  452) = (   0.2917929   0.3610626   0.0000000), wk =   0.0003472
        k(  453) = (   0.4584596   1.2270880   0.0000000), wk =   0.0003472
        k(  454) = (   0.7084596   0.9384129   0.0000000), wk =   0.0003472
        k(  455) = (   0.1667929   0.7700190   0.0000000), wk =   0.0003472
        k(  456) = (   0.8334596   1.3473693   0.0000000), wk =   0.0003472
        k(  457) = (   0.5834596   0.6256815   0.0000000), wk =   0.0003472
        k(  458) = (   0.2501263   0.3370063   0.0000000), wk =   0.0003472
        k(  459) = (   0.4167929   1.2030317   0.0000000), wk =   0.0003472
        k(  460) = (   0.7501263   0.9143566   0.0000000), wk =   0.0003472
        k(  461) = (   0.1667929   0.8181316   0.0000000), wk =   0.0003472
        k(  462) = (   0.8334596   1.3954818   0.0000000), wk =   0.0003472
        k(  463) = (   0.6251263   0.6016252   0.0000000), wk =   0.0003472
        k(  464) = (   0.2084596   0.3129501   0.0000000), wk =   0.0003472
        k(  465) = (   0.3751263   1.1789755   0.0000000), wk =   0.0003472
        k(  466) = (   0.7917929   0.8903004   0.0000000), wk =   0.0003472
        k(  467) = (   0.2084596   0.3610626   0.0000000), wk =   0.0003472
        k(  468) = (   0.7917929   0.9384129   0.0000000), wk =   0.0003472
        k(  469) = (   0.2084596   0.7940753   0.0000000), wk =   0.0003472
        k(  470) = (   0.5834596   0.5775690   0.0000000), wk =   0.0003472
        k(  471) = (   0.7917929   1.3714256   0.0000000), wk =   0.0003472
        k(  472) = (   0.4167929   1.1549192   0.0000000), wk =   0.0003472
        k(  473) = (   0.2084596   0.4091751   0.0000000), wk =   0.0003472
        k(  474) = (   0.7917929   0.9865254   0.0000000), wk =   0.0003472
        k(  475) = (   0.2501263   0.7700190   0.0000000), wk =   0.0003472
        k(  476) = (   0.5417929   0.5535127   0.0000000), wk =   0.0003472
        k(  477) = (   0.7501263   1.3473693   0.0000000), wk =   0.0003472
        k(  478) = (   0.4584596   1.1308630   0.0000000), wk =   0.0003472
        k(  479) = (   0.2084596   0.4572877   0.0000000), wk =   0.0003472
        k(  480) = (   0.7917929   1.0346379   0.0000000), wk =   0.0003472
        k(  481) = (   0.2917929   0.7459628   0.0000000), wk =   0.0003472
        k(  482) = (   0.5001263   0.5294564   0.0000000), wk =   0.0003472
        k(  483) = (   0.7084596   1.3233131   0.0000000), wk =   0.0003472
        k(  484) = (   0.5001263   1.1068067   0.0000000), wk =   0.0003472
        k(  485) = (   0.2084596   0.5054002   0.0000000), wk =   0.0003472
        k(  486) = (   0.7917929   1.0827504   0.0000000), wk =   0.0003472
        k(  487) = (   0.3334596   0.7219065   0.0000000), wk =   0.0003472
        k(  488) = (   0.4584596   0.5054002   0.0000000), wk =   0.0003472
        k(  489) = (   0.6667929   1.2992568   0.0000000), wk =   0.0003472
        k(  490) = (   0.5417929   1.0827504   0.0000000), wk =   0.0003472
        k(  491) = (   0.2084596   0.5535127   0.0000000), wk =   0.0003472
        k(  492) = (   0.7917929   1.1308630   0.0000000), wk =   0.0003472
        k(  493) = (   0.3751263   0.6978503   0.0000000), wk =   0.0003472
        k(  494) = (   0.4167929   0.4813439   0.0000000), wk =   0.0003472
        k(  495) = (   0.6251263   1.2752005   0.0000000), wk =   0.0003472
        k(  496) = (   0.5834596   1.0586942   0.0000000), wk =   0.0003472
        k(  497) = (   0.2084596   0.6016252   0.0000000), wk =   0.0003472
        k(  498) = (   0.7917929   1.1789755   0.0000000), wk =   0.0003472
        k(  499) = (   0.4167929   0.6737940   0.0000000), wk =   0.0003472
        k(  500) = (   0.3751263   0.4572876   0.0000000), wk =   0.0003472
        k(  501) = (   0.5834596   1.2511443   0.0000000), wk =   0.0003472
        k(  502) = (   0.6251263   1.0346379   0.0000000), wk =   0.0003472
        k(  503) = (   0.2084596   0.6497377   0.0000000), wk =   0.0003472
        k(  504) = (   0.7917929   1.2270880   0.0000000), wk =   0.0003472
        k(  505) = (   0.4584596   0.6497377   0.0000000), wk =   0.0003472
        k(  506) = (   0.3334596   0.4332314   0.0000000), wk =   0.0003472
        k(  507) = (   0.5417929   1.2270880   0.0000000), wk =   0.0003472
        k(  508) = (   0.6667929   1.0105817   0.0000000), wk =   0.0003472
        k(  509) = (   0.2084596   0.6978503   0.0000000), wk =   0.0003472
        k(  510) = (   0.7917929   1.2752005   0.0000000), wk =   0.0003472
        k(  511) = (   0.5001263   0.6256815   0.0000000), wk =   0.0003472
        k(  512) = (   0.2917929   0.4091751   0.0000000), wk =   0.0003472
        k(  513) = (   0.5001263   1.2030317   0.0000000), wk =   0.0003472
        k(  514) = (   0.7084596   0.9865254   0.0000000), wk =   0.0003472
        k(  515) = (   0.2084596   0.7459628   0.0000000), wk =   0.0003472
        k(  516) = (   0.7917929   1.3233131   0.0000000), wk =   0.0003472
        k(  517) = (   0.5417929   0.6016252   0.0000000), wk =   0.0003472
        k(  518) = (   0.2501263   0.3851189   0.0000000), wk =   0.0003472
        k(  519) = (   0.4584596   1.1789755   0.0000000), wk =   0.0003472
        k(  520) = (   0.7501263   0.9624691   0.0000000), wk =   0.0003472
        k(  521) = (   0.2501263   0.4332314   0.0000000), wk =   0.0003472
        k(  522) = (   0.7501263   1.0105817   0.0000000), wk =   0.0003472
        k(  523) = (   0.2501263   0.7219065   0.0000000), wk =   0.0003472
        k(  524) = (   0.5001263   0.5775690   0.0000000), wk =   0.0003472
        k(  525) = (   0.7501263   1.2992568   0.0000000), wk =   0.0003472
        k(  526) = (   0.5001263   1.1549192   0.0000000), wk =   0.0003472
        k(  527) = (   0.2501263   0.4813439   0.0000000), wk =   0.0003472
        k(  528) = (   0.7501263   1.0586942   0.0000000), wk =   0.0003472
        k(  529) = (   0.2917929   0.6978503   0.0000000), wk =   0.0003472
        k(  530) = (   0.4584596   0.5535127   0.0000000), wk =   0.0003472
        k(  531) = (   0.7084596   1.2752005   0.0000000), wk =   0.0003472
        k(  532) = (   0.5417929   1.1308630   0.0000000), wk =   0.0003472
        k(  533) = (   0.2501263   0.5294564   0.0000000), wk =   0.0003472
        k(  534) = (   0.7501263   1.1068067   0.0000000), wk =   0.0003472
        k(  535) = (   0.3334596   0.6737940   0.0000000), wk =   0.0003472
        k(  536) = (   0.4167929   0.5294564   0.0000000), wk =   0.0003472
        k(  537) = (   0.6667929   1.2511443   0.0000000), wk =   0.0003472
        k(  538) = (   0.5834596   1.1068067   0.0000000), wk =   0.0003472
        k(  539) = (   0.2501263   0.5775690   0.0000000), wk =   0.0003472
        k(  540) = (   0.7501263   1.1549192   0.0000000), wk =   0.0003472
        k(  541) = (   0.3751263   0.6497377   0.0000000), wk =   0.0003472
        k(  542) = (   0.3751263   0.5054002   0.0000000), wk =   0.0003472
        k(  543) = (   0.6251263   1.2270880   0.0000000), wk =   0.0003472
        k(  544) = (   0.6251263   1.0827504   0.0000000), wk =   0.0003472
        k(  545) = (   0.2501263   0.6256815   0.0000000), wk =   0.0003472
        k(  546) = (   0.7501263   1.2030317   0.0000000), wk =   0.0003472
        k(  547) = (   0.4167929   0.6256815   0.0000000), wk =   0.0003472
        k(  548) = (   0.3334596   0.4813439   0.0000000), wk =   0.0003472
        k(  549) = (   0.5834596   1.2030317   0.0000000), wk =   0.0003472
        k(  550) = (   0.6667929   1.0586942   0.0000000), wk =   0.0003472
        k(  551) = (   0.2501263   0.6737940   0.0000000), wk =   0.0003472
        k(  552) = (   0.7501263   1.2511443   0.0000000), wk =   0.0003472
        k(  553) = (   0.4584596   0.6016252   0.0000000), wk =   0.0003472
        k(  554) = (   0.2917929   0.4572877   0.0000000), wk =   0.0003472
        k(  555) = (   0.5417929   1.1789755   0.0000000), wk =   0.0003472
        k(  556) = (   0.7084596   1.0346379   0.0000000), wk =   0.0003472
        k(  557) = (   0.2917929   0.5054002   0.0000000), wk =   0.0003472
        k(  558) = (   0.7084596   1.0827504   0.0000000), wk =   0.0003472
        k(  559) = (   0.2917929   0.6497377   0.0000000), wk =   0.0003472
        k(  560) = (   0.4167929   0.5775690   0.0000000), wk =   0.0003472
        k(  561) = (   0.7084596   1.2270880   0.0000000), wk =   0.0003472
        k(  562) = (   0.5834596   1.1549192   0.0000000), wk =   0.0003472
        k(  563) = (   0.2917929   0.5535127   0.0000000), wk =   0.0003472
        k(  564) = (   0.7084596   1.1308630   0.0000000), wk =   0.0003472
        k(  565) = (   0.3334596   0.6256815   0.0000000), wk =   0.0003472
        k(  566) = (   0.3751263   0.5535127   0.0000000), wk =   0.0003472
        k(  567) = (   0.6667929   1.2030317   0.0000000), wk =   0.0003472
        k(  568) = (   0.6251263   1.1308630   0.0000000), wk =   0.0003472
        k(  569) = (   0.2917929   0.6016252   0.0000000), wk =   0.0003472
        k(  570) = (   0.7084596   1.1789755   0.0000000), wk =   0.0003472
        k(  571) = (   0.3751263   0.6016252   0.0000000), wk =   0.0003472
        k(  572) = (   0.3334596   0.5294564   0.0000000), wk =   0.0003472
        k(  573) = (   0.6251263   1.1789755   0.0000000), wk =   0.0003472
        k(  574) = (   0.6667929   1.1068067   0.0000000), wk =   0.0003472
        k(  575) = (   0.3334596   0.5775690   0.0000000), wk =   0.0003472
        k(  576) = (   0.6667929   1.1549192   0.0000000), wk =   0.0003472
        k(  577) = (   0.0005050   0.0008747   0.0000000), wk =   0.0003472
        k(  578) = (   0.0005050   0.0489873   0.0000000), wk =   0.0003472
        k(  579) = (   0.0421717   1.1315190   0.0000000), wk =   0.0003472
        k(  580) = (   0.9588384   0.5541688   0.0000000), wk =   0.0003472
        k(  581) = (   0.0005050   0.0970998   0.0000000), wk =   0.0003472
        k(  582) = (   0.0838384   1.1074628   0.0000000), wk =   0.0003472
        k(  583) = (   0.9171717   0.5301125   0.0000000), wk =   0.0003472
        k(  584) = (   0.0005050   0.1452123   0.0000000), wk =   0.0003472
        k(  585) = (   0.1255050   1.0834065   0.0000000), wk =   0.0003472
        k(  586) = (   0.8755050   0.5060562   0.0000000), wk =   0.0003472
        k(  587) = (   0.0005050   0.1933248   0.0000000), wk =   0.0003472
        k(  588) = (   0.1671717   1.0593502   0.0000000), wk =   0.0003472
        k(  589) = (   0.8338384   0.4820000   0.0000000), wk =   0.0003472
        k(  590) = (   0.0005050   0.2414374   0.0000000), wk =   0.0003472
        k(  591) = (   0.2088384   1.0352940   0.0000000), wk =   0.0003472
        k(  592) = (   0.7921717   0.4579437   0.0000000), wk =   0.0003472
        k(  593) = (   0.0005050   0.2895499   0.0000000), wk =   0.0003472
        k(  594) = (   0.2505050   1.0112377   0.0000000), wk =   0.0003472
        k(  595) = (   0.7505050   0.4338874   0.0000000), wk =   0.0003472
        k(  596) = (   0.0005050   0.3376624   0.0000000), wk =   0.0003472
        k(  597) = (   0.2921717   0.9871815   0.0000000), wk =   0.0003472
        k(  598) = (   0.7088384   0.4098312   0.0000000), wk =   0.0003472
        k(  599) = (   0.0005050   0.3857749   0.0000000), wk =   0.0003472
        k(  600) = (   0.3338384   0.9631252   0.0000000), wk =   0.0003472
        k(  601) = (   0.6671717   0.3857749   0.0000000), wk =   0.0003472
        k(  602) = (   0.0005050   0.4338874   0.0000000), wk =   0.0003472
        k(  603) = (   0.3755050   0.9390689   0.0000000), wk =   0.0003472
        k(  604) = (   0.6255050   0.3617187   0.0000000), wk =   0.0003472
        k(  605) = (   0.0005050   0.4820000   0.0000000), wk =   0.0003472
        k(  606) = (   0.4171717   0.9150127   0.0000000), wk =   0.0003472
        k(  607) = (   0.5838384   0.3376624   0.0000000), wk =   0.0003472
        k(  608) = (   0.0005050   0.5301125   0.0000000), wk =   0.0003472
        k(  609) = (   0.4588384   0.8909564   0.0000000), wk =   0.0003472
        k(  610) = (   0.5421717   0.3136061   0.0000000), wk =   0.0003472
        k(  611) = (   0.0005050   0.5782250   0.0000000), wk =   0.0003472
        k(  612) = (   0.5005050   0.8669002   0.0000000), wk =   0.0003472
        k(  613) = (   0.5005050   0.2895499   0.0000000), wk =   0.0003472
        k(  614) = (   0.0005050   0.6263375   0.0000000), wk =   0.0003472
        k(  615) = (   0.5421717   0.8428439   0.0000000), wk =   0.0003472
        k(  616) = (   0.4588384   0.2654936   0.0000000), wk =   0.0003472
        k(  617) = (   0.0005050   0.6744501   0.0000000), wk =   0.0003472
        k(  618) = (   0.5838384   0.8187876   0.0000000), wk =   0.0003472
        k(  619) = (   0.4171717   0.2414374   0.0000000), wk =   0.0003472
        k(  620) = (   0.0005050   0.7225626   0.0000000), wk =   0.0003472
        k(  621) = (   0.6255050   0.7947314   0.0000000), wk =   0.0003472
        k(  622) = (   0.3755050   0.2173811   0.0000000), wk =   0.0003472
        k(  623) = (   0.0005050   0.7706751   0.0000000), wk =   0.0003472
        k(  624) = (   0.6671717   0.7706751   0.0000000), wk =   0.0003472
        k(  625) = (   0.3338384   0.1933248   0.0000000), wk =   0.0003472
        k(  626) = (   0.0005050   0.8187876   0.0000000), wk =   0.0003472
        k(  627) = (   0.7088384   0.7466188   0.0000000), wk =   0.0003472
        k(  628) = (   0.2921717   0.1692686   0.0000000), wk =   0.0003472
        k(  629) = (   0.0005050   0.8669002   0.0000000), wk =   0.0003472
        k(  630) = (   0.7505050   0.7225626   0.0000000), wk =   0.0003472
        k(  631) = (   0.2505050   0.1452123   0.0000000), wk =   0.0003472
        k(  632) = (   0.0005050   0.9150127   0.0000000), wk =   0.0003472
        k(  633) = (   0.7921717   0.6985063   0.0000000), wk =   0.0003472
        k(  634) = (   0.2088384   0.1211561   0.0000000), wk =   0.0003472
        k(  635) = (   0.0005050   0.9631252   0.0000000), wk =   0.0003472
        k(  636) = (   0.8338384   0.6744501   0.0000000), wk =   0.0003472
        k(  637) = (   0.1671717   0.0970998   0.0000000), wk =   0.0003472
        k(  638) = (   0.0005050   1.0112377   0.0000000), wk =   0.0003472
        k(  639) = (   0.8755050   0.6503938   0.0000000), wk =   0.0003472
        k(  640) = (   0.1255050   0.0730435   0.0000000), wk =   0.0003472
        k(  641) = (   0.0005050   1.0593502   0.0000000), wk =   0.0003472
        k(  642) = (   0.9171717   0.6263375   0.0000000), wk =   0.0003472
        k(  643) = (   0.0838384   0.0489873   0.0000000), wk =   0.0003472
        k(  644) = (   0.0005050   1.1074628   0.0000000), wk =   0.0003472
        k(  645) = (   0.9588384   0.6022813   0.0000000), wk =   0.0003472
        k(  646) = (   0.0421717   0.0249310   0.0000000), wk =   0.0003472
        k(  647) = (   0.0421717   0.0730435   0.0000000), wk =   0.0003472
        k(  648) = (   0.9588384   0.6503938   0.0000000), wk =   0.0003472
        k(  649) = (   0.0421717   1.0834065   0.0000000), wk =   0.0003472
        k(  650) = (   0.9171717   0.5782250   0.0000000), wk =   0.0003472
        k(  651) = (   0.9588384   1.6607568   0.0000000), wk =   0.0003472
        k(  652) = (   0.0838384   1.1555753   0.0000000), wk =   0.0003472
        k(  653) = (   0.0421717   0.1211561   0.0000000), wk =   0.0003472
        k(  654) = (   0.9588384   0.6985063   0.0000000), wk =   0.0003472
        k(  655) = (   0.0838384   1.0593502   0.0000000), wk =   0.0003472
        k(  656) = (   0.8755050   0.5541688   0.0000000), wk =   0.0003472
        k(  657) = (   0.9171717   1.6367005   0.0000000), wk =   0.0003472
        k(  658) = (   0.1255050   1.1315190   0.0000000), wk =   0.0003472
        k(  659) = (   0.0421717   0.1692686   0.0000000), wk =   0.0003472
        k(  660) = (   0.9588384   0.7466188   0.0000000), wk =   0.0003472
        k(  661) = (   0.1255050   1.0352940   0.0000000), wk =   0.0003472
        k(  662) = (   0.8338384   0.5301125   0.0000000), wk =   0.0003472
        k(  663) = (   0.8755050   1.6126442   0.0000000), wk =   0.0003472
        k(  664) = (   0.1671717   1.1074628   0.0000000), wk =   0.0003472
        k(  665) = (   0.0421717   0.2173811   0.0000000), wk =   0.0003472
        k(  666) = (   0.9588384   0.7947314   0.0000000), wk =   0.0003472
        k(  667) = (   0.1671717   1.0112377   0.0000000), wk =   0.0003472
        k(  668) = (   0.7921717   0.5060562   0.0000000), wk =   0.0003472
        k(  669) = (   0.8338384   1.5885880   0.0000000), wk =   0.0003472
        k(  670) = (   0.2088384   1.0834065   0.0000000), wk =   0.0003472
        k(  671) = (   0.0421717   0.2654936   0.0000000), wk =   0.0003472
        k(  672) = (   0.9588384   0.8428439   0.0000000), wk =   0.0003472
        k(  673) = (   0.2088384   0.9871815   0.0000000), wk =   0.0003472
        k(  674) = (   0.7505050   0.4820000   0.0000000), wk =   0.0003472
        k(  675) = (   0.7921717   1.5645317   0.0000000), wk =   0.0003472
        k(  676) = (   0.2505050   1.0593502   0.0000000), wk =   0.0003472
        k(  677) = (   0.0421717   0.3136061   0.0000000), wk =   0.0003472
        k(  678) = (   0.9588384   0.8909564   0.0000000), wk =   0.0003472
        k(  679) = (   0.2505050   0.9631252   0.0000000), wk =   0.0003472
        k(  680) = (   0.7088384   0.4579437   0.0000000), wk =   0.0003472
        k(  681) = (   0.7505050   1.5404755   0.0000000), wk =   0.0003472
        k(  682) = (   0.2921717   1.0352940   0.0000000), wk =   0.0003472
        k(  683) = (   0.0421717   0.3617187   0.0000000), wk =   0.0003472
        k(  684) = (   0.9588384   0.9390689   0.0000000), wk =   0.0003472
        k(  685) = (   0.2921717   0.9390689   0.0000000), wk =   0.0003472
        k(  686) = (   0.6671717   0.4338874   0.0000000), wk =   0.0003472
        k(  687) = (   0.7088384   1.5164192   0.0000000), wk =   0.0003472
        k(  688) = (   0.3338384   1.0112377   0.0000000), wk =   0.0003472
        k(  689) = (   0.0421717   0.4098312   0.0000000), wk =   0.0003472
        k(  690) = (   0.9588384   0.9871815   0.0000000), wk =   0.0003472
        k(  691) = (   0.3338384   0.9150127   0.0000000), wk =   0.0003472
        k(  692) = (   0.6255050   0.4098312   0.0000000), wk =   0.0003472
        k(  693) = (   0.6671717   1.4923629   0.0000000), wk =   0.0003472
        k(  694) = (   0.3755050   0.9871815   0.0000000), wk =   0.0003472
        k(  695) = (   0.0421717   0.4579437   0.0000000), wk =   0.0003472
        k(  696) = (   0.9588384   1.0352940   0.0000000), wk =   0.0003472
        k(  697) = (   0.3755050   0.8909564   0.0000000), wk =   0.0003472
        k(  698) = (   0.5838384   0.3857749   0.0000000), wk =   0.0003472
        k(  699) = (   0.6255050   1.4683067   0.0000000), wk =   0.0003472
        k(  700) = (   0.4171717   0.9631252   0.0000000), wk =   0.0003472
        k(  701) = (   0.0421717   0.5060562   0.0000000), wk =   0.0003472
        k(  702) = (   0.9588384   1.0834065   0.0000000), wk =   0.0003472
        k(  703) = (   0.4171717   0.8669001   0.0000000), wk =   0.0003472
        k(  704) = (   0.5421717   0.3617187   0.0000000), wk =   0.0003472
        k(  705) = (   0.5838384   1.4442504   0.0000000), wk =   0.0003472
        k(  706) = (   0.4588384   0.9390689   0.0000000), wk =   0.0003472
        k(  707) = (   0.0421717   0.5541688   0.0000000), wk =   0.0003472
        k(  708) = (   0.9588384   1.1315190   0.0000000), wk =   0.0003472
        k(  709) = (   0.4588384   0.8428439   0.0000000), wk =   0.0003472
        k(  710) = (   0.5005050   0.3376624   0.0000000), wk =   0.0003472
        k(  711) = (   0.5421717   1.4201942   0.0000000), wk =   0.0003472
        k(  712) = (   0.5005050   0.9150127   0.0000000), wk =   0.0003472
        k(  713) = (   0.0421717   0.6022813   0.0000000), wk =   0.0003472
        k(  714) = (   0.9588384   1.1796315   0.0000000), wk =   0.0003472
        k(  715) = (   0.5005050   0.8187876   0.0000000), wk =   0.0003472
        k(  716) = (   0.4588384   0.3136061   0.0000000), wk =   0.0003472
        k(  717) = (   0.5005050   1.3961379   0.0000000), wk =   0.0003472
        k(  718) = (   0.5421717   0.8909564   0.0000000), wk =   0.0003472
        k(  719) = (   0.0421717   0.6503938   0.0000000), wk =   0.0003472
        k(  720) = (   0.9588384   1.2277441   0.0000000), wk =   0.0003472
        k(  721) = (   0.5421717   0.7947314   0.0000000), wk =   0.0003472
        k(  722) = (   0.4171717   0.2895499   0.0000000), wk =   0.0003472
        k(  723) = (   0.4588384   1.3720816   0.0000000), wk =   0.0003472
        k(  724) = (   0.5838384   0.8669002   0.0000000), wk =   0.0003472
        k(  725) = (   0.0421717   0.6985063   0.0000000), wk =   0.0003472
        k(  726) = (   0.9588384   1.2758566   0.0000000), wk =   0.0003472
        k(  727) = (   0.5838384   0.7706751   0.0000000), wk =   0.0003472
        k(  728) = (   0.3755050   0.2654936   0.0000000), wk =   0.0003472
        k(  729) = (   0.4171717   1.3480254   0.0000000), wk =   0.0003472
        k(  730) = (   0.6255050   0.8428439   0.0000000), wk =   0.0003472
        k(  731) = (   0.0421717   0.7466188   0.0000000), wk =   0.0003472
        k(  732) = (   0.9588384   1.3239691   0.0000000), wk =   0.0003472
        k(  733) = (   0.6255050   0.7466188   0.0000000), wk =   0.0003472
        k(  734) = (   0.3338384   0.2414374   0.0000000), wk =   0.0003472
        k(  735) = (   0.3755050   1.3239691   0.0000000), wk =   0.0003472
        k(  736) = (   0.6671717   0.8187876   0.0000000), wk =   0.0003472
        k(  737) = (   0.0421717   0.7947314   0.0000000), wk =   0.0003472
        k(  738) = (   0.9588384   1.3720816   0.0000000), wk =   0.0003472
        k(  739) = (   0.6671717   0.7225626   0.0000000), wk =   0.0003472
        k(  740) = (   0.2921717   0.2173811   0.0000000), wk =   0.0003472
        k(  741) = (   0.3338384   1.2999129   0.0000000), wk =   0.0003472
        k(  742) = (   0.7088384   0.7947314   0.0000000), wk =   0.0003472
        k(  743) = (   0.0421717   0.8428439   0.0000000), wk =   0.0003472
        k(  744) = (   0.9588384   1.4201942   0.0000000), wk =   0.0003472
        k(  745) = (   0.7088384   0.6985063   0.0000000), wk =   0.0003472
        k(  746) = (   0.2505050   0.1933248   0.0000000), wk =   0.0003472
        k(  747) = (   0.2921717   1.2758566   0.0000000), wk =   0.0003472
        k(  748) = (   0.7505050   0.7706751   0.0000000), wk =   0.0003472
        k(  749) = (   0.0421717   0.8909564   0.0000000), wk =   0.0003472
        k(  750) = (   0.9588384   1.4683067   0.0000000), wk =   0.0003472
        k(  751) = (   0.7505050   0.6744501   0.0000000), wk =   0.0003472
        k(  752) = (   0.2088384   0.1692686   0.0000000), wk =   0.0003472
        k(  753) = (   0.2505050   1.2518003   0.0000000), wk =   0.0003472
        k(  754) = (   0.7921717   0.7466188   0.0000000), wk =   0.0003472
        k(  755) = (   0.0421717   0.9390689   0.0000000), wk =   0.0003472
        k(  756) = (   0.9588384   1.5164192   0.0000000), wk =   0.0003472
        k(  757) = (   0.7921717   0.6503938   0.0000000), wk =   0.0003472
        k(  758) = (   0.1671717   0.1452123   0.0000000), wk =   0.0003472
        k(  759) = (   0.2088384   1.2277441   0.0000000), wk =   0.0003472
        k(  760) = (   0.8338384   0.7225626   0.0000000), wk =   0.0003472
        k(  761) = (   0.0421717   0.9871815   0.0000000), wk =   0.0003472
        k(  762) = (   0.9588384   1.5645317   0.0000000), wk =   0.0003472
        k(  763) = (   0.8338384   0.6263375   0.0000000), wk =   0.0003472
        k(  764) = (   0.1255050   0.1211561   0.0000000), wk =   0.0003472
        k(  765) = (   0.1671717   1.2036878   0.0000000), wk =   0.0003472
        k(  766) = (   0.8755050   0.6985063   0.0000000), wk =   0.0003472
        k(  767) = (   0.0421717   1.0352940   0.0000000), wk =   0.0003472
        k(  768) = (   0.9588384   1.6126442   0.0000000), wk =   0.0003472
        k(  769) = (   0.8755050   0.6022813   0.0000000), wk =   0.0003472
        k(  770) = (   0.0838384   0.0970998   0.0000000), wk =   0.0003472
        k(  771) = (   0.1255050   1.1796315   0.0000000), wk =   0.0003472
        k(  772) = (   0.9171717   0.6744501   0.0000000), wk =   0.0003472
        k(  773) = (   0.0838384   0.1452123   0.0000000), wk =   0.0003472
        k(  774) = (   0.9171717   0.7225626   0.0000000), wk =   0.0003472
        k(  775) = (   0.0838384   1.0112377   0.0000000), wk =   0.0003472
        k(  776) = (   0.8338384   0.5782250   0.0000000), wk =   0.0003472
        k(  777) = (   0.9171717   1.5885880   0.0000000), wk =   0.0003472
        k(  778) = (   0.1671717   1.1555753   0.0000000), wk =   0.0003472
        k(  779) = (   0.0838384   0.1933248   0.0000000), wk =   0.0003472
        k(  780) = (   0.9171717   0.7706751   0.0000000), wk =   0.0003472
        k(  781) = (   0.1255050   0.9871815   0.0000000), wk =   0.0003472
        k(  782) = (   0.7921717   0.5541688   0.0000000), wk =   0.0003472
        k(  783) = (   0.8755050   1.5645317   0.0000000), wk =   0.0003472
        k(  784) = (   0.2088384   1.1315190   0.0000000), wk =   0.0003472
        k(  785) = (   0.0838384   0.2414374   0.0000000), wk =   0.0003472
        k(  786) = (   0.9171717   0.8187876   0.0000000), wk =   0.0003472
        k(  787) = (   0.1671717   0.9631252   0.0000000), wk =   0.0003472
        k(  788) = (   0.7505050   0.5301125   0.0000000), wk =   0.0003472
        k(  789) = (   0.8338384   1.5404755   0.0000000), wk =   0.0003472
        k(  790) = (   0.2505050   1.1074628   0.0000000), wk =   0.0003472
        k(  791) = (   0.0838384   0.2895499   0.0000000), wk =   0.0003472
        k(  792) = (   0.9171717   0.8669001   0.0000000), wk =   0.0003472
        k(  793) = (   0.2088384   0.9390689   0.0000000), wk =   0.0003472
        k(  794) = (   0.7088384   0.5060562   0.0000000), wk =   0.0003472
        k(  795) = (   0.7921717   1.5164192   0.0000000), wk =   0.0003472
        k(  796) = (   0.2921717   1.0834065   0.0000000), wk =   0.0003472
        k(  797) = (   0.0838384   0.3376624   0.0000000), wk =   0.0003472
        k(  798) = (   0.9171717   0.9150127   0.0000000), wk =   0.0003472
        k(  799) = (   0.2505050   0.9150127   0.0000000), wk =   0.0003472
        k(  800) = (   0.6671717   0.4820000   0.0000000), wk =   0.0003472
        k(  801) = (   0.7505050   1.4923629   0.0000000), wk =   0.0003472
        k(  802) = (   0.3338384   1.0593502   0.0000000), wk =   0.0003472
        k(  803) = (   0.0838384   0.3857749   0.0000000), wk =   0.0003472
        k(  804) = (   0.9171717   0.9631252   0.0000000), wk =   0.0003472
        k(  805) = (   0.2921717   0.8909564   0.0000000), wk =   0.0003472
        k(  806) = (   0.6255050   0.4579437   0.0000000), wk =   0.0003472
        k(  807) = (   0.7088384   1.4683067   0.0000000), wk =   0.0003472
        k(  808) = (   0.3755050   1.0352940   0.0000000), wk =   0.0003472
        k(  809) = (   0.0838384   0.4338874   0.0000000), wk =   0.0003472
        k(  810) = (   0.9171717   1.0112377   0.0000000), wk =   0.0003472
        k(  811) = (   0.3338384   0.8669002   0.0000000), wk =   0.0003472
        k(  812) = (   0.5838384   0.4338874   0.0000000), wk =   0.0003472
        k(  813) = (   0.6671717   1.4442504   0.0000000), wk =   0.0003472
        k(  814) = (   0.4171717   1.0112377   0.0000000), wk =   0.0003472
        k(  815) = (   0.0838384   0.4820000   0.0000000), wk =   0.0003472
        k(  816) = (   0.9171717   1.0593502   0.0000000), wk =   0.0003472
        k(  817) = (   0.3755050   0.8428439   0.0000000), wk =   0.0003472
        k(  818) = (   0.5421717   0.4098312   0.0000000), wk =   0.0003472
        k(  819) = (   0.6255050   1.4201942   0.0000000), wk =   0.0003472
        k(  820) = (   0.4588384   0.9871815   0.0000000), wk =   0.0003472
        k(  821) = (   0.0838384   0.5301125   0.0000000), wk =   0.0003472
        k(  822) = (   0.9171717   1.1074628   0.0000000), wk =   0.0003472
        k(  823) = (   0.4171717   0.8187876   0.0000000), wk =   0.0003472
        k(  824) = (   0.5005050   0.3857749   0.0000000), wk =   0.0003472
        k(  825) = (   0.5838384   1.3961379   0.0000000), wk =   0.0003472
        k(  826) = (   0.5005050   0.9631252   0.0000000), wk =   0.0003472
        k(  827) = (   0.0838384   0.5782250   0.0000000), wk =   0.0003472
        k(  828) = (   0.9171717   1.1555753   0.0000000), wk =   0.0003472
        k(  829) = (   0.4588384   0.7947314   0.0000000), wk =   0.0003472
        k(  830) = (   0.4588384   0.3617187   0.0000000), wk =   0.0003472
        k(  831) = (   0.5421717   1.3720816   0.0000000), wk =   0.0003472
        k(  832) = (   0.5421717   0.9390689   0.0000000), wk =   0.0003472
        k(  833) = (   0.0838384   0.6263375   0.0000000), wk =   0.0003472
        k(  834) = (   0.9171717   1.2036878   0.0000000), wk =   0.0003472
        k(  835) = (   0.5005050   0.7706751   0.0000000), wk =   0.0003472
        k(  836) = (   0.4171717   0.3376624   0.0000000), wk =   0.0003472
        k(  837) = (   0.5005050   1.3480254   0.0000000), wk =   0.0003472
        k(  838) = (   0.5838384   0.9150127   0.0000000), wk =   0.0003472
        k(  839) = (   0.0838384   0.6744501   0.0000000), wk =   0.0003472
        k(  840) = (   0.9171717   1.2518003   0.0000000), wk =   0.0003472
        k(  841) = (   0.5421717   0.7466188   0.0000000), wk =   0.0003472
        k(  842) = (   0.3755050   0.3136061   0.0000000), wk =   0.0003472
        k(  843) = (   0.4588384   1.3239691   0.0000000), wk =   0.0003472
        k(  844) = (   0.6255050   0.8909564   0.0000000), wk =   0.0003472
        k(  845) = (   0.0838384   0.7225626   0.0000000), wk =   0.0003472
        k(  846) = (   0.9171717   1.2999129   0.0000000), wk =   0.0003472
        k(  847) = (   0.5838384   0.7225626   0.0000000), wk =   0.0003472
        k(  848) = (   0.3338384   0.2895499   0.0000000), wk =   0.0003472
        k(  849) = (   0.4171717   1.2999129   0.0000000), wk =   0.0003472
        k(  850) = (   0.6671717   0.8669002   0.0000000), wk =   0.0003472
        k(  851) = (   0.0838384   0.7706751   0.0000000), wk =   0.0003472
        k(  852) = (   0.9171717   1.3480254   0.0000000), wk =   0.0003472
        k(  853) = (   0.6255050   0.6985063   0.0000000), wk =   0.0003472
        k(  854) = (   0.2921717   0.2654936   0.0000000), wk =   0.0003472
        k(  855) = (   0.3755050   1.2758566   0.0000000), wk =   0.0003472
        k(  856) = (   0.7088384   0.8428439   0.0000000), wk =   0.0003472
        k(  857) = (   0.0838384   0.8187876   0.0000000), wk =   0.0003472
        k(  858) = (   0.9171717   1.3961379   0.0000000), wk =   0.0003472
        k(  859) = (   0.6671717   0.6744501   0.0000000), wk =   0.0003472
        k(  860) = (   0.2505050   0.2414374   0.0000000), wk =   0.0003472
        k(  861) = (   0.3338384   1.2518003   0.0000000), wk =   0.0003472
        k(  862) = (   0.7505050   0.8187876   0.0000000), wk =   0.0003472
        k(  863) = (   0.0838384   0.8669001   0.0000000), wk =   0.0003472
        k(  864) = (   0.9171717   1.4442504   0.0000000), wk =   0.0003472
        k(  865) = (   0.7088384   0.6503938   0.0000000), wk =   0.0003472
        k(  866) = (   0.2088384   0.2173811   0.0000000), wk =   0.0003472
        k(  867) = (   0.2921717   1.2277441   0.0000000), wk =   0.0003472
        k(  868) = (   0.7921717   0.7947314   0.0000000), wk =   0.0003472
        k(  869) = (   0.0838384   0.9150127   0.0000000), wk =   0.0003472
        k(  870) = (   0.9171717   1.4923629   0.0000000), wk =   0.0003472
        k(  871) = (   0.7505050   0.6263375   0.0000000), wk =   0.0003472
        k(  872) = (   0.1671717   0.1933248   0.0000000), wk =   0.0003472
        k(  873) = (   0.2505050   1.2036878   0.0000000), wk =   0.0003472
        k(  874) = (   0.8338384   0.7706751   0.0000000), wk =   0.0003472
        k(  875) = (   0.0838384   0.9631252   0.0000000), wk =   0.0003472
        k(  876) = (   0.9171717   1.5404755   0.0000000), wk =   0.0003472
        k(  877) = (   0.7921717   0.6022813   0.0000000), wk =   0.0003472
        k(  878) = (   0.1255050   0.1692686   0.0000000), wk =   0.0003472
        k(  879) = (   0.2088384   1.1796315   0.0000000), wk =   0.0003472
        k(  880) = (   0.8755050   0.7466188   0.0000000), wk =   0.0003472
        k(  881) = (   0.1255050   0.2173811   0.0000000), wk =   0.0003472
        k(  882) = (   0.8755050   0.7947314   0.0000000), wk =   0.0003472
        k(  883) = (   0.1255050   0.9390689   0.0000000), wk =   0.0003472
        k(  884) = (   0.7505050   0.5782250   0.0000000), wk =   0.0003472
        k(  885) = (   0.8755050   1.5164192   0.0000000), wk =   0.0003472
        k(  886) = (   0.2505050   1.1555753   0.0000000), wk =   0.0003472
        k(  887) = (   0.1255050   0.2654936   0.0000000), wk =   0.0003472
        k(  888) = (   0.8755050   0.8428439   0.0000000), wk =   0.0003472
        k(  889) = (   0.1671717   0.9150127   0.0000000), wk =   0.0003472
        k(  890) = (   0.7088384   0.5541688   0.0000000), wk =   0.0003472
        k(  891) = (   0.8338384   1.4923629   0.0000000), wk =   0.0003472
        k(  892) = (   0.2921717   1.1315190   0.0000000), wk =   0.0003472
        k(  893) = (   0.1255050   0.3136061   0.0000000), wk =   0.0003472
        k(  894) = (   0.8755050   0.8909564   0.0000000), wk =   0.0003472
        k(  895) = (   0.2088384   0.8909564   0.0000000), wk =   0.0003472
        k(  896) = (   0.6671717   0.5301125   0.0000000), wk =   0.0003472
        k(  897) = (   0.7921717   1.4683067   0.0000000), wk =   0.0003472
        k(  898) = (   0.3338384   1.1074628   0.0000000), wk =   0.0003472
        k(  899) = (   0.1255050   0.3617187   0.0000000), wk =   0.0003472
        k(  900) = (   0.8755050   0.9390689   0.0000000), wk =   0.0003472
        k(  901) = (   0.2505050   0.8669002   0.0000000), wk =   0.0003472
        k(  902) = (   0.6255050   0.5060562   0.0000000), wk =   0.0003472
        k(  903) = (   0.7505050   1.4442504   0.0000000), wk =   0.0003472
        k(  904) = (   0.3755050   1.0834065   0.0000000), wk =   0.0003472
        k(  905) = (   0.1255050   0.4098312   0.0000000), wk =   0.0003472
        k(  906) = (   0.8755050   0.9871815   0.0000000), wk =   0.0003472
        k(  907) = (   0.2921717   0.8428439   0.0000000), wk =   0.0003472
        k(  908) = (   0.5838384   0.4820000   0.0000000), wk =   0.0003472
        k(  909) = (   0.7088384   1.4201942   0.0000000), wk =   0.0003472
        k(  910) = (   0.4171717   1.0593502   0.0000000), wk =   0.0003472
        k(  911) = (   0.1255050   0.4579437   0.0000000), wk =   0.0003472
        k(  912) = (   0.8755050   1.0352940   0.0000000), wk =   0.0003472
        k(  913) = (   0.3338384   0.8187876   0.0000000), wk =   0.0003472
        k(  914) = (   0.5421717   0.4579437   0.0000000), wk =   0.0003472
        k(  915) = (   0.6671717   1.3961379   0.0000000), wk =   0.0003472
        k(  916) = (   0.4588384   1.0352940   0.0000000), wk =   0.0003472
        k(  917) = (   0.1255050   0.5060562   0.0000000), wk =   0.0003472
        k(  918) = (   0.8755050   1.0834065   0.0000000), wk =   0.0003472
        k(  919) = (   0.3755050   0.7947314   0.0000000), wk =   0.0003472
        k(  920) = (   0.5005050   0.4338874   0.0000000), wk =   0.0003472
        k(  921) = (   0.6255050   1.3720816   0.0000000), wk =   0.0003472
        k(  922) = (   0.5005050   1.0112377   0.0000000), wk =   0.0003472
        k(  923) = (   0.1255050   0.5541688   0.0000000), wk =   0.0003472
        k(  924) = (   0.8755050   1.1315190   0.0000000), wk =   0.0003472
        k(  925) = (   0.4171717   0.7706751   0.0000000), wk =   0.0003472
        k(  926) = (   0.4588384   0.4098312   0.0000000), wk =   0.0003472
        k(  927) = (   0.5838384   1.3480254   0.0000000), wk =   0.0003472
        k(  928) = (   0.5421717   0.9871815   0.0000000), wk =   0.0003472
        k(  929) = (   0.1255050   0.6022813   0.0000000), wk =   0.0003472
[...]

   -18.1581 -12.5102 -11.1804  -4.4701   0.2665   8.0055   8.6880   9.7065
    10.8916  11.2426  11.6472  11.7245  11.7798  12.5182  12.5456  12.9464
    12.9491  13.5898  14.1360  14.1493  14.4591  14.6224  14.7270  15.0873
    15.4933  15.7923  16.3311  16.5776  17.1880  17.6725  18.1795  18.5936
    18.8831  19.4316  20.3438  21.2717  21.4725  22.3251  22.4254  22.9898
    23.2476  24.2108  25.4317  25.6474  26.7887  27.2471  27.7573  28.7403
    30.1116  30.5818

          k = 0.2626 0.6473 0.0000 (  7222 PWs)   bands (ev):

   -18.3418 -12.4182 -10.8816  -4.7707   0.5378   7.7217   8.0474   9.5578
     9.7842   9.8361  10.6805  10.9097  11.4404  12.7443  12.9822  13.4369
    13.4893  13.6768  14.3262  14.4163  14.9707  15.0016  15.3287  15.6814
    15.7521  16.1687  16.4961  16.9780  17.3051  18.1251  18.1777  18.9989
    19.2758  20.0701  20.4356  21.2680  21.3916  22.0906  22.9400  23.1260
    24.1084  24.5656  25.4772  25.6190  26.1482  27.4355  28.8240  29.2521
    30.3668  30.5815

          k = 0.7626 1.2247 0.0000 (  7220 PWs)   bands (ev):

   -18.4166 -12.4667 -10.6432  -4.8879   0.6090   7.4514   8.0858   9.2594
     9.4972   9.6329  10.4472  10.6906  11.2127  12.4846  12.7602  13.2251
    13.2755  13.6512  14.2682  14.5213  15.2745  15.2805  15.6979  15.8653
    16.0314  16.4845  16.8402  17.2221  17.5893  18.0738  18.6246  19.1921
    19.6762  20.1393  20.2502  21.0979  21.8464  22.6750  23.0742  23.1193
    24.1214  24.3619  25.4667  25.7820  26.8916  27.4997  28.6650  28.9937
    30.3987  30.7319

          k = 0.4293 0.6473 0.0000 (  7226 PWs)   bands (ev):

   -18.3666 -12.6135 -10.5697  -4.8057   0.4842   7.6923   8.2333   9.1591
     9.8094   9.9374  10.5376  10.9706  11.2271  12.3103  12.4194  12.9473
    13.0107  13.5331  13.6918  14.3062  15.2161  15.3119  15.8311  15.9064
    16.3314  16.5484  16.6764  17.4066  17.6865  18.1686  18.4776  19.2884
    19.6080  20.2154  20.2412  21.2137  21.8226  22.7688  22.9304  23.2723
    23.8367  24.2982  25.7619  25.7655  27.2470  27.3568  28.2861  28.6012
    30.2796  31.0889

          k = 0.3460 0.5030 0.0000 (  7201 PWs)   bands (ev):

   -18.2083 -12.5396 -11.0338  -4.5525   0.3232   8.0741   8.4134   9.5942
    10.7052  10.7126  10.9719  11.7171  11.9884  12.2718  12.2956  13.1001
    13.2364  13.7625  13.9385  14.0058  14.6970  14.7650  15.0252  15.4257
    15.6879  16.0473  16.4577  16.7934  16.9894  17.9057  18.1626  18.8086
    18.9882  19.6319  20.3733  21.2482  21.7013  22.1699  22.5148  22.9172
    23.5323  24.3407  25.5307  25.8199  26.7113  26.9341  28.0870  28.8164
    30.5277  30.5381

          k = 0.5960 1.2247 0.0000 (  7220 PWs)   bands (ev):

   -18.2729 -12.6382 -10.7604  -4.6552   0.3636   8.1441   8.2201   9.3142
    10.4101  10.4604  10.6763  11.4367  11.7169  11.9782  12.0544  12.8973
    12.9817  13.7012  13.7675  14.1912  14.8794  14.9730  15.7181  15.7424
    16.0474  16.4623  16.4866  17.0901  17.3712  18.1051  18.1228  19.1185
    19.3578  19.7815  20.3976  21.4702  21.6217  22.6454  22.6596  22.9312
    23.4419  24.4884  25.5977  26.2467  26.8603  27.0383  27.8364  28.7411
    30.5003  31.3002

          k = 0.6793 1.0803 0.0000 (  7200 PWs)   bands (ev):

   -18.2304 -12.4599 -11.0825  -4.5904   0.3799   8.0277   8.2307   9.7292
    10.3930  10.3984  11.0257  11.4758  11.7771  12.8173  12.9389  13.2856
    13.4857  13.7166  13.9970  14.0024  14.5242  14.6212  14.9657  15.4684
    15.6923  16.0983  16.2485  16.7939  17.0417  17.8244  18.0623  18.6795
    19.1251  20.1146  20.1853  21.1441  21.3931  21.9051  22.8467  22.9170
    24.1493  24.1521  25.3995  25.4747  26.3725  27.1823  28.7947  28.8139
    30.1663  30.3741

          k = 0.2626 0.6954 0.0000 (  7220 PWs)   bands (ev):

   -18.5969 -12.1911 -10.5586  -5.1714   0.9329   6.8112   7.7530   8.5784
     9.0621   9.4761   9.8629  10.1968  10.9502  11.9555  12.3597  13.8423
    14.3335  14.7108  14.8327  15.0778  15.2128  15.4024  15.4269  15.9972
    16.3473  16.5839  16.8959  17.6328  17.8226  18.3188  18.8368  19.1998
    19.2024  20.2670  20.7623  21.7842  22.0729  22.2012  23.1212  23.1274
    24.4008  24.6619  25.8943  26.1069  26.3584  27.6986  28.7338  29.8570
    30.7427  30.7886

          k = 0.7626 1.2728 0.0000 (  7223 PWs)   bands (ev):

   -18.6889 -12.1455 -10.3865  -5.3113   1.0575   6.5401   7.5991   8.2783
     8.8639   9.2147   9.6555  10.0926  10.8185  11.7526  12.1288  13.9202
    14.1637  14.7540  14.7949  14.8523  15.3733  15.6325  16.1258  16.2491
    16.4084  17.0789  17.2733  17.7782  17.8664  18.4604  18.6496  19.4896
    19.6593  20.3319  20.8562  21.8339  22.0563  22.7268  23.1001  23.3671
    24.5146  24.5334  25.9171  26.1510  27.1111  27.7184  28.6586  29.6204
    30.5640  30.8202

          k = 0.4710 0.6233 0.0000 (  7228 PWs)   bands (ev):

   -18.5966 -12.3180 -10.3944  -5.1688   0.8795   6.8253   7.8258   8.6146
     9.1260   9.1698   9.8746  10.2596  11.0149  11.9839  12.3221  13.5827
    13.7734  14.0772  14.6183  14.9736  15.1508  15.2255  15.9313  16.3083
    16.5576  17.0231  17.2208  17.6406  18.0847  18.2140  18.5896  19.4893
    19.8204  20.5122  20.5280  21.2417  22.1785  22.8210  23.1450  23.5232
    24.2586  24.6476  25.2960  26.0942  27.4156  27.7582  28.5280  29.5401
    30.1800  30.4039

          k = 0.3043 0.4789 0.0000 (  7222 PWs)   bands (ev):

   -18.3609 -12.4010 -10.8588  -4.8015   0.5681   7.6411   8.0368   9.5033
     9.7327   9.7566  10.6099  10.8289  11.4084  12.6848  12.9595  13.4423
    13.5779  13.7705  14.3844  14.5030  14.9976  15.0365  15.3778  15.6566
    15.7408  16.1958  16.5125  17.0458  17.3555  18.1642  18.1964  19.0055
    19.2807  20.0971  20.4760  21.2717  21.4161  22.0954  22.9482  23.1705
    24.0949  24.6629  25.4942  25.5761  26.1441  27.4793  28.8187  29.3715
    30.3712  30.5803

          k = 0.5543 1.2006 0.0000 (  7226 PWs)   bands (ev):

   -18.4372 -12.4423 -10.6255  -4.9206   0.6435   7.3707   8.0584   9.2027
     9.4487   9.5582  10.3763  10.6184  11.1970  12.4294  12.7203  13.3085
    13.3660  13.6907  14.3721  14.5974  15.2367  15.3075  15.6778  15.8913
    16.0453  16.5433  16.8899  17.2538  17.6302  18.0880  18.6333  19.2066
    19.6811  20.1665  20.2991  21.0940  21.8741  22.6764  23.1084  23.1393
    24.1088  24.4592  25.4048  25.8075  26.9057  27.5438  28.6538  29.1138
    30.4092  30.6472

          k = 0.7210 1.0563 0.0000 (  7218 PWs)   bands (ev):

   -18.4302 -12.3203 -10.7976  -4.9120   0.6836   7.3664   7.9691   9.2148
     9.4987   9.7001  10.3459  10.5720  11.2953  12.4458  12.8259  13.5115
    14.0742  14.3160  14.6331  14.6469  14.8640  15.2051  15.4478  15.5380
    15.9201  16.1940  16.4270  17.4173  17.4964  18.1227  18.5866  18.7473
    19.2360  20.3309  20.5087  21.4269  21.6940  21.8172  22.9768  23.2698
    24.1262  24.9493  25.5318  25.7422  25.8616  27.6152  28.8174  29.9633
    30.4066  30.4219

          k = 0.3043 0.5271 0.0000 (  7186 PWs)   bands (ev):

   -18.1797 -12.4239 -11.2369  -4.5077   0.3225   7.9642   8.4661   9.8730
    10.6834  10.7276  11.1809  11.7744  12.0205  13.0123  13.1499  13.3564
    13.4774  13.6135  13.8255  13.9693  14.1293  14.4089  14.7951  14.9910
    15.4936  15.9765  16.2543  16.6840  17.1702  17.5393  17.8065  18.4982
    19.1786  19.9394  20.4168  20.8582  21.0720  22.0346  22.8375  22.9281
    23.9515  24.3681  24.7964  25.4313  26.6362  27.1507  28.6945  29.0694
    29.4186  30.3723

          k = 0.7210 1.1044 0.0000 (  7197 PWs)   bands (ev):

   -18.2283 -12.4480 -11.1017  -4.5872   0.3810   8.0175   8.2331   9.7557
    10.3890  10.3958  11.0464  11.4747  11.7854  12.8916  13.0070  13.3254
    13.4955  13.6945  14.0154  14.0272  14.4338  14.5833  14.9614  15.3960
    15.6822  16.1390  16.1814  16.7818  17.0898  17.7670  18.0518  18.6064
    19.1743  20.0801  20.2684  21.1112  21.3264  21.8719  22.8858  22.9175
    24.1181  24.2387  25.3742  25.3812  26.3616  27.2060  28.8075  28.8954
    30.0556  30.3529

          k = 0.3043 0.6714 0.0000 (  7224 PWs)   bands (ev):

   -18.3405 -12.4057 -10.9000  -4.7690   0.5408   7.7219   8.0376   9.5731
     9.7943   9.8308  10.6828  10.9059  11.4567  12.7557  13.0028  13.4513
    13.5609  13.7399  14.3230  14.4516  14.9194  14.9403  15.3297  15.6313
    15.7537  16.1495  16.4239  17.0055  17.3249  18.1105  18.1604  18.9004
    19.3029  20.0748  20.4937  21.2912  21.3415  21.9959  22.9368  23.1580
    24.0967  24.6482  25.4459  25.5988  26.0647  27.4523  28.8348  29.3518
    30.3457  30.4847

          k = 0.4293 0.5992 0.0000 (  7224 PWs)   bands (ev):

   -18.3405 -12.4057 -10.9000  -4.7690   0.5408   7.7219   8.0376   9.5731
     9.7943   9.8308  10.6828  10.9059  11.4567  12.7557  13.0028  13.4513
    13.5609  13.7399  14.3230  14.4516  14.9194  14.9403  15.3297  15.6313
    15.7537  16.1495  16.4239  17.0055  17.3249  18.1105  18.1604  18.9004
    19.3029  20.0748  20.4937  21.2912  21.3415  21.9959  22.9368  23.1580
    24.0967  24.6482  25.4459  25.5988  26.0647  27.4523  28.8348  29.3518
    30.3457  30.4847

          k = 0.7210 1.2487 0.0000 (  7214 PWs)   bands (ev):

   -18.4077 -12.3349 -10.8324  -4.8764   0.6504   7.4492   7.9854   9.3095
     9.5692   9.7258  10.4254  10.6423  11.3433  12.5229  12.8906  13.4774
    14.0149  14.2550  14.5743  14.5776  14.7873  15.1923  15.4608  15.4909
    15.8812  16.1537  16.3580  17.3519  17.4715  18.0743  18.5603  18.6710
    19.2673  20.2727  20.5470  21.3722  21.6545  21.7513  22.9628  23.2763
    24.1037  24.9653  25.4857  25.7117  25.8039  27.5913  28.8316  29.9238
    30.3464  30.3698

          k = 0.5960 1.1766 0.0000 (  7197 PWs)   bands (ev):

   -18.2283 -12.4480 -11.1017  -4.5872   0.3810   8.0175   8.2331   9.7557
    10.3890  10.3958  11.0464  11.4747  11.7854  12.8916  13.0070  13.3254
    13.4955  13.6945  14.0154  14.0272  14.4338  14.5833  14.9614  15.3960
    15.6822  16.1390  16.1814  16.7818  17.0898  17.7670  18.0518  18.6064
    19.1743  20.0801  20.2684  21.1112  21.3264  21.8719  22.8858  22.9175
    24.1181  24.2387  25.3742  25.3812  26.3616  27.2060  28.8075  28.8954
    30.0556  30.3529

          k = 0.3043 0.5752 0.0000 (  7184 PWs)   bands (ev):

   -18.1110 -12.4177 -11.3910  -4.3929   0.2268   7.9009   8.8781  10.0085
    10.9991  11.5939  12.0016  12.1091  12.1356  12.8267  12.8410  13.1088
    13.1515  13.3761  13.6170  13.6507  14.1710  14.4427  14.5593  15.0097
    15.1804  15.6536  16.0481  16.7132  16.7584  17.5675  17.8494  18.6094
    19.0026  19.7112  19.8379  20.6630  21.4767  22.3660  22.7403  23.0339
    23.5346  23.7746  24.5694  25.7923  26.8474  27.5787  28.1133  28.4762
    29.2201  30.5695

          k = 0.7210 1.1525 0.0000 (  7172 PWs)   bands (ev):

   -18.1508 -12.4958 -11.2137  -4.4582   0.2611   7.9880   8.7170   9.7486
    10.9204  11.2834  11.6660  11.8025  11.8261  12.5590  12.5807  12.9859
    12.9887  13.5510  14.0738  14.1378  14.3772  14.6343  14.6873  15.0512
    15.4602  15.7415  16.2686  16.5902  17.1494  17.6749  18.1203  18.5871
    18.8676  19.4674  20.2807  21.2913  21.3660  22.3292  22.4627  22.9968
    23.2806  24.1525  25.3157  25.6627  26.7957  27.2830  27.8065  28.7110
    29.9921  30.5735

          k = 0.3460 0.6473 0.0000 (  7193 PWs)   bands (ev):

   -18.1959 -12.5288 -11.0748  -4.5323   0.3108   8.0544   8.4744   9.6305
    10.7744  10.7982  11.0371  11.7826  12.0567  12.2731  12.3105  13.1087
    13.2323  13.7143  13.9826  14.0413  14.6349  14.6918  14.9295  15.3700
    15.6400  15.9809  16.4250  16.7387  17.0189  17.8396  18.1741  18.7724
    18.9094  19.6242  20.3688  21.2243  21.6607  22.1710  22.4878  22.9240
    23.5145  24.3076  25.5397  25.7087  26.7860  26.9117  28.0743  28.8047
    30.4051  30.5376

          k = 0.3876 0.5752 0.0000 (  7186 PWs)   bands (ev):

   -18.1684 -12.4236 -11.2616  -4.4890   0.3069   7.9549   8.5284   9.8897
    10.7765  10.8253  11.1953  11.8651  12.0928  12.9608  13.1533  13.2976
    13.4570  13.5585  13.8089  13.9787  14.1389  14.3547  14.7420  14.9557
    15.4445  15.9728  16.2174  16.6811  17.1425  17.5393  17.7527  18.5343
    19.1265  19.9246  20.3639  20.8060  21.1019  22.1096  22.7888  22.9322
    23.9250  24.3020  24.7386  25.4689  26.7289  27.1160  28.6639  28.9969
    29.3623  30.3967

          k = 0.6793 1.2247 0.0000 (  7199 PWs)   bands (ev):

   -18.2156 -12.4559 -11.1202  -4.5663   0.3616   8.0141   8.3021   9.7587
    10.4802  10.4980  11.0656  11.5637  11.8466  12.8155  12.9373  13.2851
    13.5276  13.7066  13.9624  14.0044  14.4096  14.5517  14.9107  15.3777
    15.6539  16.1031  16.1901  16.7950  17.0316  17.7507  18.0473  18.6170
    19.1070  20.1087  20.1790  21.1151  21.3356  21.9222  22.8196  22.9190
    24.1257  24.1315  25.3642  25.4047  26.4492  27.1571  28.7787  28.7944
    30.0447  30.3776

          k = 0.6376 1.1525 0.0000 (  7184 PWs)   bands (ev):

   -18.1137 -12.4046 -11.4003  -4.3978   0.2340   7.8962   8.8426  10.0331
    11.0383  11.3988  11.6320  12.3599  12.5991  12.6944  12.8901  13.0304
    13.1988  13.4483  13.5443  13.8297  14.1247  14.2227  14.5886  14.9402
    15.1319  15.8859  15.9962  16.5703  16.9779  17.3988  17.7683  18.7912
    18.8875  19.7447  20.0612  20.4351  21.4070  22.4975  22.6349  22.9761
    23.7182  23.9411  24.3298  25.7411  26.9277  27.3612  28.4574  28.6039
    28.9480  30.5382

          k = 0.3043 0.6233 0.0000 (  7186 PWs)   bands (ev):

   -18.1684 -12.4236 -11.2616  -4.4890   0.3069   7.9549   8.5284   9.8897
    10.7765  10.8253  11.1953  11.8651  12.0928  12.9608  13.1533  13.2976
    13.4570  13.5585  13.8089  13.9787  14.1389  14.3547  14.7420  14.9557
    15.4445  15.9728  16.2174  16.6811  17.1425  17.5393  17.7527  18.5343
    19.1265  19.9246  20.3639  20.8060  21.1019  22.1096  22.7888  22.9322
    23.9250  24.3020  24.7386  25.4689  26.7289  27.1160  28.6639  28.9969
    29.3623  30.3967

          k = 0.7210 1.2006 0.0000 (  7199 PWs)   bands (ev):

   -18.2156 -12.4559 -11.1202  -4.5663   0.3616   8.0141   8.3021   9.7587
    10.4802  10.4980  11.0656  11.5637  11.8466  12.8155  12.9373  13.2851
    13.5276  13.7066  13.9624  14.0044  14.4096  14.5517  14.9107  15.3777
    15.6539  16.1031  16.1901  16.7950  17.0316  17.7507  18.0473  18.6170
    19.1070  20.1087  20.1790  21.1151  21.3356  21.9222  22.8196  22.9190
    24.1257  24.1315  25.3642  25.4047  26.4492  27.1571  28.7787  28.7944
    30.0447  30.3776

          k = 0.3876 0.6233 0.0000 (  7193 PWs)   bands (ev):

   -18.1959 -12.5288 -11.0748  -4.5323   0.3108   8.0544   8.4744   9.6305
    10.7744  10.7982  11.0371  11.7826  12.0567  12.2731  12.3105  13.1087
    13.2323  13.7143  13.9826  14.0413  14.6349  14.6918  14.9295  15.3700
    15.6400  15.9809  16.4250  16.7387  17.0189  17.8396  18.1741  18.7724
    18.9094  19.6242  20.3688  21.2243  21.6607  22.1710  22.4878  22.9240
    23.5145  24.3076  25.5397  25.7087  26.7860  26.9117  28.0743  28.8047
    30.4051  30.5376

          k = 0.3460 0.5511 0.0000 (  7184 PWs)   bands (ev):

   -18.1110 -12.4177 -11.3910  -4.3929   0.2268   7.9009   8.8781  10.0085
    10.9991  11.5939  12.0016  12.1091  12.1356  12.8267  12.8410  13.1088
    13.1515  13.3761  13.6170  13.6507  14.1710  14.4427  14.5593  15.0097
    15.1804  15.6536  16.0481  16.7132  16.7584  17.5675  17.8494  18.6094
    19.0026  19.7112  19.8379  20.6630  21.4767  22.3660  22.7403  23.0339
    23.5346  23.7746  24.5694  25.7923  26.8474  27.5787  28.1133  28.4762
    29.2201  30.5695

          k = 0.6376 1.2006 0.0000 (  7172 PWs)   bands (ev):

   -18.1508 -12.4958 -11.2137  -4.4582   0.2611   7.9880   8.7170   9.7486
    10.9204  11.2834  11.6660  11.8025  11.8261  12.5590  12.5807  12.9859
    12.9887  13.5510  14.0738  14.1378  14.3772  14.6343  14.6873  15.0512
    15.4602  15.7415  16.2686  16.5902  17.1494  17.6749  18.1203  18.5871
    18.8676  19.4674  20.2807  21.2913  21.3660  22.3292  22.4627  22.9968
    23.2806  24.1525  25.3157  25.6627  26.7957  27.2830  27.8065  28.7110
    29.9921  30.5735

          k = 0.6793 1.1285 0.0000 (  7184 PWs)   bands (ev):

   -18.1137 -12.4046 -11.4003  -4.3978   0.2340   7.8962   8.8426  10.0331
    11.0383  11.3988  11.6320  12.3599  12.5991  12.6944  12.8901  13.0304
    13.1988  13.4483  13.5443  13.8297  14.1247  14.2227  14.5886  14.9402
    15.1319  15.8859  15.9962  16.5703  16.9779  17.3988  17.7683  18.7912
    18.8875  19.7447  20.0612  20.4351  21.4070  22.4975  22.6349  22.9761
    23.7182  23.9411  24.3298  25.7411  26.9277  27.3612  28.4574  28.6039
    28.9480  30.5382

          k = 0.3460 0.5992 0.0000 (  7186 PWs)   bands (ev):

   -18.1066 -12.4094 -11.4097  -4.3857   0.2225   7.8923   8.8966  10.0420
    10.9945  11.6451  12.0853  12.1441  12.1563  12.8472  12.8797  13.1104
    13.1301  13.3570  13.5657  13.6163  14.1293  14.3698  14.5712  15.0467
    15.1284  15.6541  16.0472  16.6457  16.7889  17.4827  17.8869  18.6097
    19.0376  19.7483  19.7808  20.5640  21.5079  22.3663  22.7791  23.0431
    23.5748  23.7285  24.4642  25.8128  26.8517  27.6291  28.1565  28.4441
    29.1098  30.5740

          k = 0.6793 1.1766 0.0000 (  7174 PWs)   bands (ev):

   -18.1085 -12.4004 -11.4161  -4.3889   0.2274   7.8891   8.8724  10.0585
    11.0228  11.4884  11.7394  12.3781  12.6585  12.6986  12.8558  12.9715
    13.1698  13.4618  13.5067  13.7801  14.0906  14.2004  14.5983  14.9832
    15.0874  15.8366  16.0101  16.5396  16.9646  17.3451  17.8219  18.7470
    18.9476  19.7133  20.0315  20.3755  21.4554  22.4626  22.7057  22.9882
    23.6882  23.9053  24.2646  25.7761  26.9089  27.4537  28.4303  28.5625
    28.8797  30.5528

     Writing all to output data dir ./bn.save/

     init_run     :      0.12s CPU      0.15s WALL (       1 calls)
     electrons    :    512.08s CPU    517.36s WALL (       1 calls)

     Called by init_run:
     wfcinit      :      0.00s CPU      0.01s WALL (       1 calls)
     wfcinit:atom :      0.05s CPU      0.05s WALL (     720 calls)
     wfcinit:wfcr :     15.37s CPU     15.72s WALL (     720 calls)
     potinit      :      0.01s CPU      0.01s WALL (       1 calls)
     hinit0       :      0.03s CPU      0.03s WALL (       1 calls)

     Called by electrons:
     c_bands      :    511.95s CPU    517.18s WALL (       1 calls)
     v_of_rho     :      0.00s CPU      0.00s WALL (       1 calls)
     v_h          :      0.00s CPU      0.00s WALL (       1 calls)
     v_xc         :      0.00s CPU      0.00s WALL (       1 calls)

     Called by c_bands:
     init_us_2    :      0.05s CPU      0.05s WALL (     720 calls)
     init_us_2:cp :      0.05s CPU      0.05s WALL (     720 calls)
     cegterg      :    453.79s CPU    457.80s WALL (     834 calls)

     Called by sum_band:

     Called by *egterg:
     cdiaghg      :    161.36s CPU    161.61s WALL (   14893 calls)
     cegterg:over :     72.34s CPU     73.76s WALL (   14173 calls)
     cegterg:upda :     37.96s CPU     37.99s WALL (   14173 calls)
     cegterg:last :     23.56s CPU     23.56s WALL (    3067 calls)
     h_psi        :    153.74s CPU    156.35s WALL (   15727 calls)
     g_psi        :      0.75s CPU      0.75s WALL (   14173 calls)

     Called by h_psi:
     h_psi:calbec :      5.20s CPU      5.29s WALL (   15727 calls)
     vloc_psi     :    144.60s CPU    147.06s WALL (   15727 calls)
     add_vuspsi   :      3.63s CPU      3.69s WALL (   15727 calls)

     General routines
     calbec       :      5.17s CPU      5.27s WALL (   15727 calls)
     fft          :      0.00s CPU      0.00s WALL (       3 calls)
     fftw         :    138.61s CPU    140.99s WALL (  983988 calls)
     davcio       :      0.35s CPU      0.40s WALL (    1440 calls)

     Parallel routines

     PWSCF        :   8m42.15s CPU   8m54.59s WALL


   This run was terminated on:  15:30:22  23Jan2025            

=------------------------------------------------------------------------------=
   JOB DONE.
=------------------------------------------------------------------------------=
