
     Program PWSCF v.7.2 starts on 24Jan2025 at  6:55:17 

     This program is part of the open-source Quantum ESPRESSO suite
     for quantum simulation of materials; please cite
         "P. Giannozzi et al., J. Phys.:Condens. Matter 21 395502 (2009);
         "P. Giannozzi et al., J. Phys.:Condens. Matter 29 465901 (2017);
         "P. Giannozzi et al., J. Chem. Phys. 152 154105 (2020);
          URL http://www.quantum-espresso.org", 
     in publications or presentations arising from this work. More details at
     http://www.quantum-espresso.org/quote

     Parallel version (MPI), running on   128 processors

     MPI processes distributed on     4 nodes
     488327 MiB available memory on the printing compute node when the environment starts

     Reading input from in

     Current dimensions of program PWSCF are:
     Max number of different atomic species (ntypx) = 10
     Max number of k-points (npk) =  40000
     Max angular momentum in pseudopotentials (lmaxx) =  4

     Atomic positions and unit cell read from directory:
     ./bn.save/
     Atomic positions from file used, from input discarded

     Message from routine setup:
     using ibrav=0 with symmetry is DISCOURAGED, use correct ibrav instead

     K-points division:     npool     =       8
     R & G space division:  proc/nbgrp/npool/nimage =      16
     Subspace diagonalization in iterative solution of the eigenvalue problem:
     a serial algorithm will be used


     Parallelization info
     --------------------
     sticks:   dense  smooth     PW     G-vecs:    dense   smooth      PW
     Min          27      27     11                 3629     3629     987
     Max          28      28     12                 3656     3656    1010
     Sum         433     433    187                58173    58173   16061

     Using Slab Decomposition



     bravais-lattice index     =            0
     lattice parameter (alat)  =       4.7319  a.u.
     unit-cell volume          =     732.8682 (a.u.)^3
     number of atoms/cell      =            2
     number of atomic types    =            2
     number of electrons       =         8.00
     number of Kohn-Sham states=           50
     kinetic-energy cutoff     =      70.0000  Ry
     charge density cutoff     =     280.0000  Ry
     Exchange-correlation= PZ
                           (   1   1   0   0   0   0   0)

     celldm(1)=   4.731874  celldm(2)=   0.000000  celldm(3)=   0.000000
     celldm(4)=   0.000000  celldm(5)=   0.000000  celldm(6)=   0.000000

     crystal axes: (cart. coord. in units of alat)
               a(1) = (   1.000000   0.000000   0.000000 )  
               a(2) = (  -0.500000   0.866025   0.000000 )  
               a(3) = (   0.000000   0.000000   7.987220 )  

     reciprocal axes: (cart. coord. in units 2 pi/alat)
               b(1) = (  1.000000  0.577350 -0.000000 )  
               b(2) = (  0.000000  1.154701  0.000000 )  
               b(3) = (  0.000000 -0.000000  0.125200 )  


     PseudoPot. # 1 for B  read from file:
     ./B_LDA.upf
     MD5 check sum: 65253fcade13fd046065f55d2370c246
     Pseudo is Norm-conserving, Zval =  3.0
     Generated using ONCVPSP code by D. R. Hamann
     Using radial grid of 1498 points,  4 beta functions with: 
                l(1) =   0
                l(2) =   0
                l(3) =   1
                l(4) =   1

     PseudoPot. # 2 for N  read from file:
     ./N_LDA.upf
     MD5 check sum: 7658f7615a25ff704775af13f841a702
     Pseudo is Norm-conserving, Zval =  5.0
     Generated using ONCVPSP code by D. R. Hamann
     Using radial grid of 1058 points,  4 beta functions with: 
                l(1) =   0
                l(2) =   0
                l(3) =   1
                l(4) =   1

     atomic species   valence    mass     pseudopotential
        B              3.00    11.00000     B ( 1.00)
        N              5.00    14.00000     N ( 1.00)

     12 Sym. Ops. (no inversion) found


                                    s                        frac. trans.

      isym =  1     identity                                     

 cryst.   s( 1) = (     1          0          0      )
                  (     0          1          0      )
                  (     0          0          1      )

 cart.    s( 1) = (  1.0000000  0.0000000  0.0000000 )
                  (  0.0000000  1.0000000  0.0000000 )
                  (  0.0000000  0.0000000  1.0000000 )


      isym =  2     180 deg rotation - cart. axis [0,1,0]        

 cryst.   s( 2) = (    -1          0          0      )
                  (     1          1          0      )
                  (     0          0         -1      )

 cart.    s( 2) = ( -1.0000000  0.0000000  0.0000000 )
                  (  0.0000000  1.0000000  0.0000000 )
                  (  0.0000000  0.0000000 -1.0000000 )


      isym =  3     120 deg rotation - cryst. axis [0,0,1]       

 cryst.   s( 3) = (     0          1          0      )
                  (    -1         -1          0      )
                  (     0          0          1      )

 cart.    s( 3) = ( -0.5000000 -0.8660254  0.0000000 )
                  (  0.8660254 -0.5000000  0.0000000 )
                  (  0.0000000  0.0000000  1.0000000 )


      isym =  4     120 deg rotation - cryst. axis [0,0,-1]      

 cryst.   s( 4) = (    -1         -1          0      )
                  (     1          0          0      )
                  (     0          0          1      )

 cart.    s( 4) = ( -0.5000000  0.8660254  0.0000000 )
                  ( -0.8660254 -0.5000000  0.0000000 )
                  (  0.0000000  0.0000000  1.0000000 )


      isym =  5     180 deg rotation - cryst. axis [1,-1,0]      

 cryst.   s( 5) = (     0         -1          0      )
                  (    -1          0          0      )
                  (     0          0         -1      )

 cart.    s( 5) = (  0.5000000 -0.8660254  0.0000000 )
                  ( -0.8660254 -0.5000000  0.0000000 )
                  (  0.0000000  0.0000000 -1.0000000 )


      isym =  6     180 deg rotation - cryst. axis [2,1,0]       

 cryst.   s( 6) = (     1          1          0      )
                  (     0         -1          0      )
                  (     0          0         -1      )

 cart.    s( 6) = (  0.5000000  0.8660254  0.0000000 )
                  (  0.8660254 -0.5000000  0.0000000 )
                  (  0.0000000  0.0000000 -1.0000000 )


      isym =  7     inv. 180 deg rotation - cart. axis [0,0,1]   

 cryst.   s( 7) = (     1          0          0      )
                  (     0          1          0      )
                  (     0          0         -1      )

 cart.    s( 7) = (  1.0000000  0.0000000  0.0000000 )
                  (  0.0000000  1.0000000  0.0000000 )
                  (  0.0000000  0.0000000 -1.0000000 )


      isym =  8     inv. 180 deg rotation - cart. axis [1,0,0]   

 cryst.   s( 8) = (    -1          0          0      )
                  (     1          1          0      )
                  (     0          0          1      )

 cart.    s( 8) = ( -1.0000000  0.0000000  0.0000000 )
                  (  0.0000000  1.0000000  0.0000000 )
                  (  0.0000000  0.0000000  1.0000000 )


      isym =  9     inv.  60 deg rotation - cryst. axis [0,0,1]  

 cryst.   s( 9) = (    -1         -1          0      )
                  (     1          0          0      )
                  (     0          0         -1      )

 cart.    s( 9) = ( -0.5000000  0.8660254  0.0000000 )
                  ( -0.8660254 -0.5000000  0.0000000 )
                  (  0.0000000  0.0000000 -1.0000000 )


      isym = 10     inv.  60 deg rotation - cryst. axis [0,0,-1] 

 cryst.   s(10) = (     0          1          0      )
                  (    -1         -1          0      )
                  (     0          0         -1      )

 cart.    s(10) = ( -0.5000000 -0.8660254  0.0000000 )
                  (  0.8660254 -0.5000000  0.0000000 )
                  (  0.0000000  0.0000000 -1.0000000 )


      isym = 11     inv. 180 deg rotation - cryst. axis [0,1,0]  

 cryst.   s(11) = (     1          1          0      )
                  (     0         -1          0      )
                  (     0          0          1      )

 cart.    s(11) = (  0.5000000  0.8660254  0.0000000 )
                  (  0.8660254 -0.5000000  0.0000000 )
                  (  0.0000000  0.0000000  1.0000000 )


      isym = 12     inv. 180 deg rotation - cryst. axis [1,1,0]  

 cryst.   s(12) = (     0         -1          0      )
                  (    -1          0          0      )
                  (     0          0          1      )

 cart.    s(12) = (  0.5000000 -0.8660254  0.0000000 )
                  ( -0.8660254 -0.5000000  0.0000000 )
                  (  0.0000000  0.0000000  1.0000000 )


   Cartesian axes

     site n.     atom                  positions (alat units)
         1           N   tau(   1) = (  -0.0000000   0.5773503   3.9936102  )
         2           B   tau(   2) = (   0.5000000   0.2886751   3.9936102  )

   Crystallographic axes

     site n.     atom                  positions (cryst. coord.)
         1           N   tau(   1) = (  0.3333333  0.6666667  0.5000000  )
         2           B   tau(   2) = (  0.6666667  0.3333333  0.5000000  )

     number of k points=   576
                       cart. coord. in units 2pi/alat
        k(    1) = (   0.0000000   0.0000000   0.0000000), wk =   0.0034722
        k(    2) = (   0.0000000   0.0481125   0.0000000), wk =   0.0034722
        k(    3) = (   0.0000000   0.0962250   0.0000000), wk =   0.0034722
        k(    4) = (   0.0000000   0.1443376   0.0000000), wk =   0.0034722
        k(    5) = (   0.0000000   0.1924501   0.0000000), wk =   0.0034722
        k(    6) = (   0.0000000   0.2405626   0.0000000), wk =   0.0034722
        k(    7) = (   0.0000000   0.2886751   0.0000000), wk =   0.0034722
        k(    8) = (   0.0000000   0.3367877   0.0000000), wk =   0.0034722
        k(    9) = (   0.0000000   0.3849002   0.0000000), wk =   0.0034722
        k(   10) = (   0.0000000   0.4330127   0.0000000), wk =   0.0034722
        k(   11) = (   0.0000000   0.4811252   0.0000000), wk =   0.0034722
        k(   12) = (   0.0000000   0.5292377   0.0000000), wk =   0.0034722
        k(   13) = (   0.0000000   0.5773503   0.0000000), wk =   0.0034722
        k(   14) = (   0.0000000   0.6254628   0.0000000), wk =   0.0034722
        k(   15) = (   0.0000000   0.6735753   0.0000000), wk =   0.0034722
        k(   16) = (   0.0000000   0.7216878   0.0000000), wk =   0.0034722
        k(   17) = (   0.0000000   0.7698004   0.0000000), wk =   0.0034722
        k(   18) = (   0.0000000   0.8179129   0.0000000), wk =   0.0034722
        k(   19) = (   0.0000000   0.8660254   0.0000000), wk =   0.0034722
        k(   20) = (   0.0000000   0.9141379   0.0000000), wk =   0.0034722
        k(   21) = (   0.0000000   0.9622504   0.0000000), wk =   0.0034722
        k(   22) = (   0.0000000   1.0103630   0.0000000), wk =   0.0034722
        k(   23) = (   0.0000000   1.0584755   0.0000000), wk =   0.0034722
        k(   24) = (   0.0000000   1.1065880   0.0000000), wk =   0.0034722
        k(   25) = (   0.0416667   0.0240563   0.0000000), wk =   0.0034722
        k(   26) = (   0.0416667   0.0721688   0.0000000), wk =   0.0034722
        k(   27) = (   0.0416667   0.1202813   0.0000000), wk =   0.0034722
        k(   28) = (   0.0416667   0.1683938   0.0000000), wk =   0.0034722
        k(   29) = (   0.0416667   0.2165064   0.0000000), wk =   0.0034722
        k(   30) = (   0.0416667   0.2646189   0.0000000), wk =   0.0034722
        k(   31) = (   0.0416667   0.3127314   0.0000000), wk =   0.0034722
        k(   32) = (   0.0416667   0.3608439   0.0000000), wk =   0.0034722
        k(   33) = (   0.0416667   0.4089564   0.0000000), wk =   0.0034722
        k(   34) = (   0.0416667   0.4570690   0.0000000), wk =   0.0034722
        k(   35) = (   0.0416667   0.5051815   0.0000000), wk =   0.0034722
        k(   36) = (   0.0416667   0.5532940   0.0000000), wk =   0.0034722
        k(   37) = (   0.0416667   0.6014065   0.0000000), wk =   0.0034722
        k(   38) = (   0.0416667   0.6495191   0.0000000), wk =   0.0034722
        k(   39) = (   0.0416667   0.6976316   0.0000000), wk =   0.0034722
        k(   40) = (   0.0416667   0.7457441   0.0000000), wk =   0.0034722
        k(   41) = (   0.0416667   0.7938566   0.0000000), wk =   0.0034722
        k(   42) = (   0.0416667   0.8419691   0.0000000), wk =   0.0034722
        k(   43) = (   0.0416667   0.8900817   0.0000000), wk =   0.0034722
        k(   44) = (   0.0416667   0.9381942   0.0000000), wk =   0.0034722
        k(   45) = (   0.0416667   0.9863067   0.0000000), wk =   0.0034722
        k(   46) = (   0.0416667   1.0344192   0.0000000), wk =   0.0034722
        k(   47) = (   0.0416667   1.0825318   0.0000000), wk =   0.0034722
        k(   48) = (   0.0416667   1.1306443   0.0000000), wk =   0.0034722
        k(   49) = (   0.0833333   0.0481125   0.0000000), wk =   0.0034722
        k(   50) = (   0.0833333   0.0962250   0.0000000), wk =   0.0034722
        k(   51) = (   0.0833333   0.1443376   0.0000000), wk =   0.0034722
        k(   52) = (   0.0833333   0.1924501   0.0000000), wk =   0.0034722
        k(   53) = (   0.0833333   0.2405626   0.0000000), wk =   0.0034722
        k(   54) = (   0.0833333   0.2886751   0.0000000), wk =   0.0034722
        k(   55) = (   0.0833333   0.3367877   0.0000000), wk =   0.0034722
        k(   56) = (   0.0833333   0.3849002   0.0000000), wk =   0.0034722
        k(   57) = (   0.0833333   0.4330127   0.0000000), wk =   0.0034722
        k(   58) = (   0.0833333   0.4811252   0.0000000), wk =   0.0034722
        k(   59) = (   0.0833333   0.5292377   0.0000000), wk =   0.0034722
        k(   60) = (   0.0833333   0.5773503   0.0000000), wk =   0.0034722
        k(   61) = (   0.0833333   0.6254628   0.0000000), wk =   0.0034722
        k(   62) = (   0.0833333   0.6735753   0.0000000), wk =   0.0034722
        k(   63) = (   0.0833333   0.7216878   0.0000000), wk =   0.0034722
        k(   64) = (   0.0833333   0.7698004   0.0000000), wk =   0.0034722
        k(   65) = (   0.0833333   0.8179129   0.0000000), wk =   0.0034722
        k(   66) = (   0.0833333   0.8660254   0.0000000), wk =   0.0034722
        k(   67) = (   0.0833333   0.9141379   0.0000000), wk =   0.0034722
        k(   68) = (   0.0833333   0.9622504   0.0000000), wk =   0.0034722
        k(   69) = (   0.0833333   1.0103630   0.0000000), wk =   0.0034722
        k(   70) = (   0.0833333   1.0584755   0.0000000), wk =   0.0034722
        k(   71) = (   0.0833333   1.1065880   0.0000000), wk =   0.0034722
        k(   72) = (   0.0833333   1.1547005   0.0000000), wk =   0.0034722
        k(   73) = (   0.1250000   0.0721688   0.0000000), wk =   0.0034722
        k(   74) = (   0.1250000   0.1202813   0.0000000), wk =   0.0034722
        k(   75) = (   0.1250000   0.1683938   0.0000000), wk =   0.0034722
        k(   76) = (   0.1250000   0.2165064   0.0000000), wk =   0.0034722
        k(   77) = (   0.1250000   0.2646189   0.0000000), wk =   0.0034722
        k(   78) = (   0.1250000   0.3127314   0.0000000), wk =   0.0034722
        k(   79) = (   0.1250000   0.3608439   0.0000000), wk =   0.0034722
        k(   80) = (   0.1250000   0.4089564   0.0000000), wk =   0.0034722
        k(   81) = (   0.1250000   0.4570690   0.0000000), wk =   0.0034722
        k(   82) = (   0.1250000   0.5051815   0.0000000), wk =   0.0034722
        k(   83) = (   0.1250000   0.5532940   0.0000000), wk =   0.0034722
        k(   84) = (   0.1250000   0.6014065   0.0000000), wk =   0.0034722
        k(   85) = (   0.1250000   0.6495191   0.0000000), wk =   0.0034722
        k(   86) = (   0.1250000   0.6976316   0.0000000), wk =   0.0034722
        k(   87) = (   0.1250000   0.7457441   0.0000000), wk =   0.0034722
        k(   88) = (   0.1250000   0.7938566   0.0000000), wk =   0.0034722
        k(   89) = (   0.1250000   0.8419691   0.0000000), wk =   0.0034722
        k(   90) = (   0.1250000   0.8900817   0.0000000), wk =   0.0034722
        k(   91) = (   0.1250000   0.9381942   0.0000000), wk =   0.0034722
        k(   92) = (   0.1250000   0.9863067   0.0000000), wk =   0.0034722
        k(   93) = (   0.1250000   1.0344192   0.0000000), wk =   0.0034722
        k(   94) = (   0.1250000   1.0825318   0.0000000), wk =   0.0034722
        k(   95) = (   0.1250000   1.1306443   0.0000000), wk =   0.0034722
        k(   96) = (   0.1250000   1.1787568   0.0000000), wk =   0.0034722
        k(   97) = (   0.1666667   0.0962250   0.0000000), wk =   0.0034722
        k(   98) = (   0.1666667   0.1443376   0.0000000), wk =   0.0034722
        k(   99) = (   0.1666667   0.1924501   0.0000000), wk =   0.0034722
        k(  100) = (   0.1666667   0.2405626   0.0000000), wk =   0.0034722
        k(  101) = (   0.1666667   0.2886751   0.0000000), wk =   0.0034722
        k(  102) = (   0.1666667   0.3367877   0.0000000), wk =   0.0034722
        k(  103) = (   0.1666667   0.3849002   0.0000000), wk =   0.0034722
        k(  104) = (   0.1666667   0.4330127   0.0000000), wk =   0.0034722
        k(  105) = (   0.1666667   0.4811252   0.0000000), wk =   0.0034722
        k(  106) = (   0.1666667   0.5292377   0.0000000), wk =   0.0034722
        k(  107) = (   0.1666667   0.5773503   0.0000000), wk =   0.0034722
        k(  108) = (   0.1666667   0.6254628   0.0000000), wk =   0.0034722
        k(  109) = (   0.1666667   0.6735753   0.0000000), wk =   0.0034722
        k(  110) = (   0.1666667   0.7216878   0.0000000), wk =   0.0034722
        k(  111) = (   0.1666667   0.7698004   0.0000000), wk =   0.0034722
        k(  112) = (   0.1666667   0.8179129   0.0000000), wk =   0.0034722
        k(  113) = (   0.1666667   0.8660254   0.0000000), wk =   0.0034722
        k(  114) = (   0.1666667   0.9141379   0.0000000), wk =   0.0034722
        k(  115) = (   0.1666667   0.9622504   0.0000000), wk =   0.0034722
        k(  116) = (   0.1666667   1.0103630   0.0000000), wk =   0.0034722
        k(  117) = (   0.1666667   1.0584755   0.0000000), wk =   0.0034722
        k(  118) = (   0.1666667   1.1065880   0.0000000), wk =   0.0034722
        k(  119) = (   0.1666667   1.1547005   0.0000000), wk =   0.0034722
        k(  120) = (   0.1666667   1.2028131   0.0000000), wk =   0.0034722
        k(  121) = (   0.2083333   0.1202813   0.0000000), wk =   0.0034722
        k(  122) = (   0.2083333   0.1683938   0.0000000), wk =   0.0034722
        k(  123) = (   0.2083333   0.2165064   0.0000000), wk =   0.0034722
        k(  124) = (   0.2083333   0.2646189   0.0000000), wk =   0.0034722
        k(  125) = (   0.2083333   0.3127314   0.0000000), wk =   0.0034722
        k(  126) = (   0.2083333   0.3608439   0.0000000), wk =   0.0034722
        k(  127) = (   0.2083333   0.4089564   0.0000000), wk =   0.0034722
        k(  128) = (   0.2083333   0.4570690   0.0000000), wk =   0.0034722
        k(  129) = (   0.2083333   0.5051815   0.0000000), wk =   0.0034722
        k(  130) = (   0.2083333   0.5532940   0.0000000), wk =   0.0034722
        k(  131) = (   0.2083333   0.6014065   0.0000000), wk =   0.0034722
        k(  132) = (   0.2083333   0.6495191   0.0000000), wk =   0.0034722
        k(  133) = (   0.2083333   0.6976316   0.0000000), wk =   0.0034722
        k(  134) = (   0.2083333   0.7457441   0.0000000), wk =   0.0034722
        k(  135) = (   0.2083333   0.7938566   0.0000000), wk =   0.0034722
        k(  136) = (   0.2083333   0.8419691   0.0000000), wk =   0.0034722
        k(  137) = (   0.2083333   0.8900817   0.0000000), wk =   0.0034722
        k(  138) = (   0.2083333   0.9381942   0.0000000), wk =   0.0034722
        k(  139) = (   0.2083333   0.9863067   0.0000000), wk =   0.0034722
        k(  140) = (   0.2083333   1.0344192   0.0000000), wk =   0.0034722
        k(  141) = (   0.2083333   1.0825318   0.0000000), wk =   0.0034722
        k(  142) = (   0.2083333   1.1306443   0.0000000), wk =   0.0034722
        k(  143) = (   0.2083333   1.1787568   0.0000000), wk =   0.0034722
        k(  144) = (   0.2083333   1.2268693   0.0000000), wk =   0.0034722
        k(  145) = (   0.2500000   0.1443376   0.0000000), wk =   0.0034722
        k(  146) = (   0.2500000   0.1924501   0.0000000), wk =   0.0034722
        k(  147) = (   0.2500000   0.2405626   0.0000000), wk =   0.0034722
        k(  148) = (   0.2500000   0.2886751   0.0000000), wk =   0.0034722
        k(  149) = (   0.2500000   0.3367877   0.0000000), wk =   0.0034722
        k(  150) = (   0.2500000   0.3849002   0.0000000), wk =   0.0034722
        k(  151) = (   0.2500000   0.4330127   0.0000000), wk =   0.0034722
        k(  152) = (   0.2500000   0.4811252   0.0000000), wk =   0.0034722
        k(  153) = (   0.2500000   0.5292377   0.0000000), wk =   0.0034722
        k(  154) = (   0.2500000   0.5773503   0.0000000), wk =   0.0034722
        k(  155) = (   0.2500000   0.6254628   0.0000000), wk =   0.0034722
        k(  156) = (   0.2500000   0.6735753   0.0000000), wk =   0.0034722
        k(  157) = (   0.2500000   0.7216878   0.0000000), wk =   0.0034722
        k(  158) = (   0.2500000   0.7698004   0.0000000), wk =   0.0034722
        k(  159) = (   0.2500000   0.8179129   0.0000000), wk =   0.0034722
        k(  160) = (   0.2500000   0.8660254   0.0000000), wk =   0.0034722
        k(  161) = (   0.2500000   0.9141379   0.0000000), wk =   0.0034722
        k(  162) = (   0.2500000   0.9622504   0.0000000), wk =   0.0034722
        k(  163) = (   0.2500000   1.0103630   0.0000000), wk =   0.0034722
        k(  164) = (   0.2500000   1.0584755   0.0000000), wk =   0.0034722
        k(  165) = (   0.2500000   1.1065880   0.0000000), wk =   0.0034722
        k(  166) = (   0.2500000   1.1547005   0.0000000), wk =   0.0034722
        k(  167) = (   0.2500000   1.2028131   0.0000000), wk =   0.0034722
        k(  168) = (   0.2500000   1.2509256   0.0000000), wk =   0.0034722
        k(  169) = (   0.2916667   0.1683938   0.0000000), wk =   0.0034722
        k(  170) = (   0.2916667   0.2165064   0.0000000), wk =   0.0034722
        k(  171) = (   0.2916667   0.2646189   0.0000000), wk =   0.0034722
        k(  172) = (   0.2916667   0.3127314   0.0000000), wk =   0.0034722
        k(  173) = (   0.2916667   0.3608439   0.0000000), wk =   0.0034722
        k(  174) = (   0.2916667   0.4089564   0.0000000), wk =   0.0034722
        k(  175) = (   0.2916667   0.4570690   0.0000000), wk =   0.0034722
        k(  176) = (   0.2916667   0.5051815   0.0000000), wk =   0.0034722
        k(  177) = (   0.2916667   0.5532940   0.0000000), wk =   0.0034722
        k(  178) = (   0.2916667   0.6014065   0.0000000), wk =   0.0034722
        k(  179) = (   0.2916667   0.6495191   0.0000000), wk =   0.0034722
        k(  180) = (   0.2916667   0.6976316   0.0000000), wk =   0.0034722
        k(  181) = (   0.2916667   0.7457441   0.0000000), wk =   0.0034722
        k(  182) = (   0.2916667   0.7938566   0.0000000), wk =   0.0034722
        k(  183) = (   0.2916667   0.8419691   0.0000000), wk =   0.0034722
        k(  184) = (   0.2916667   0.8900817   0.0000000), wk =   0.0034722
        k(  185) = (   0.2916667   0.9381942   0.0000000), wk =   0.0034722
        k(  186) = (   0.2916667   0.9863067   0.0000000), wk =   0.0034722
        k(  187) = (   0.2916667   1.0344192   0.0000000), wk =   0.0034722
        k(  188) = (   0.2916667   1.0825318   0.0000000), wk =   0.0034722
        k(  189) = (   0.2916667   1.1306443   0.0000000), wk =   0.0034722
        k(  190) = (   0.2916667   1.1787568   0.0000000), wk =   0.0034722
        k(  191) = (   0.2916667   1.2268693   0.0000000), wk =   0.0034722
        k(  192) = (   0.2916667   1.2749818   0.0000000), wk =   0.0034722
        k(  193) = (   0.3333333   0.1924501   0.0000000), wk =   0.0034722
        k(  194) = (   0.3333333   0.2405626   0.0000000), wk =   0.0034722
        k(  195) = (   0.3333333   0.2886751   0.0000000), wk =   0.0034722
        k(  196) = (   0.3333333   0.3367877   0.0000000), wk =   0.0034722
        k(  197) = (   0.3333333   0.3849002   0.0000000), wk =   0.0034722
        k(  198) = (   0.3333333   0.4330127   0.0000000), wk =   0.0034722
        k(  199) = (   0.3333333   0.4811252   0.0000000), wk =   0.0034722
        k(  200) = (   0.3333333   0.5292377   0.0000000), wk =   0.0034722
        k(  201) = (   0.3333333   0.5773503   0.0000000), wk =   0.0034722
        k(  202) = (   0.3333333   0.6254628   0.0000000), wk =   0.0034722
        k(  203) = (   0.3333333   0.6735753   0.0000000), wk =   0.0034722
        k(  204) = (   0.3333333   0.7216878   0.0000000), wk =   0.0034722
        k(  205) = (   0.3333333   0.7698004   0.0000000), wk =   0.0034722
        k(  206) = (   0.3333333   0.8179129   0.0000000), wk =   0.0034722
        k(  207) = (   0.3333333   0.8660254   0.0000000), wk =   0.0034722
        k(  208) = (   0.3333333   0.9141379   0.0000000), wk =   0.0034722
        k(  209) = (   0.3333333   0.9622504   0.0000000), wk =   0.0034722
        k(  210) = (   0.3333333   1.0103630   0.0000000), wk =   0.0034722
        k(  211) = (   0.3333333   1.0584755   0.0000000), wk =   0.0034722
        k(  212) = (   0.3333333   1.1065880   0.0000000), wk =   0.0034722
        k(  213) = (   0.3333333   1.1547005   0.0000000), wk =   0.0034722
        k(  214) = (   0.3333333   1.2028131   0.0000000), wk =   0.0034722
        k(  215) = (   0.3333333   1.2509256   0.0000000), wk =   0.0034722
        k(  216) = (   0.3333333   1.2990381   0.0000000), wk =   0.0034722
        k(  217) = (   0.3750000   0.2165064   0.0000000), wk =   0.0034722
        k(  218) = (   0.3750000   0.2646189   0.0000000), wk =   0.0034722
        k(  219) = (   0.3750000   0.3127314   0.0000000), wk =   0.0034722
        k(  220) = (   0.3750000   0.3608439   0.0000000), wk =   0.0034722
        k(  221) = (   0.3750000   0.4089564   0.0000000), wk =   0.0034722
        k(  222) = (   0.3750000   0.4570690   0.0000000), wk =   0.0034722
        k(  223) = (   0.3750000   0.5051815   0.0000000), wk =   0.0034722
        k(  224) = (   0.3750000   0.5532940   0.0000000), wk =   0.0034722
        k(  225) = (   0.3750000   0.6014065   0.0000000), wk =   0.0034722
        k(  226) = (   0.3750000   0.6495191   0.0000000), wk =   0.0034722
        k(  227) = (   0.3750000   0.6976316   0.0000000), wk =   0.0034722
        k(  228) = (   0.3750000   0.7457441   0.0000000), wk =   0.0034722
        k(  229) = (   0.3750000   0.7938566   0.0000000), wk =   0.0034722
        k(  230) = (   0.3750000   0.8419691   0.0000000), wk =   0.0034722
        k(  231) = (   0.3750000   0.8900817   0.0000000), wk =   0.0034722
        k(  232) = (   0.3750000   0.9381942   0.0000000), wk =   0.0034722
        k(  233) = (   0.3750000   0.9863067   0.0000000), wk =   0.0034722
        k(  234) = (   0.3750000   1.0344192   0.0000000), wk =   0.0034722
        k(  235) = (   0.3750000   1.0825318   0.0000000), wk =   0.0034722
        k(  236) = (   0.3750000   1.1306443   0.0000000), wk =   0.0034722
        k(  237) = (   0.3750000   1.1787568   0.0000000), wk =   0.0034722
        k(  238) = (   0.3750000   1.2268693   0.0000000), wk =   0.0034722
        k(  239) = (   0.3750000   1.2749818   0.0000000), wk =   0.0034722
        k(  240) = (   0.3750000   1.3230944   0.0000000), wk =   0.0034722
        k(  241) = (   0.4166667   0.2405626   0.0000000), wk =   0.0034722
        k(  242) = (   0.4166667   0.2886751   0.0000000), wk =   0.0034722
        k(  243) = (   0.4166667   0.3367877   0.0000000), wk =   0.0034722
        k(  244) = (   0.4166667   0.3849002   0.0000000), wk =   0.0034722
        k(  245) = (   0.4166667   0.4330127   0.0000000), wk =   0.0034722
        k(  246) = (   0.4166667   0.4811252   0.0000000), wk =   0.0034722
        k(  247) = (   0.4166667   0.5292377   0.0000000), wk =   0.0034722
        k(  248) = (   0.4166667   0.5773503   0.0000000), wk =   0.0034722
        k(  249) = (   0.4166667   0.6254628   0.0000000), wk =   0.0034722
        k(  250) = (   0.4166667   0.6735753   0.0000000), wk =   0.0034722
        k(  251) = (   0.4166667   0.7216878   0.0000000), wk =   0.0034722
        k(  252) = (   0.4166667   0.7698004   0.0000000), wk =   0.0034722
        k(  253) = (   0.4166667   0.8179129   0.0000000), wk =   0.0034722
        k(  254) = (   0.4166667   0.8660254   0.0000000), wk =   0.0034722
        k(  255) = (   0.4166667   0.9141379   0.0000000), wk =   0.0034722
        k(  256) = (   0.4166667   0.9622504   0.0000000), wk =   0.0034722
        k(  257) = (   0.4166667   1.0103630   0.0000000), wk =   0.0034722
        k(  258) = (   0.4166667   1.0584755   0.0000000), wk =   0.0034722
        k(  259) = (   0.4166667   1.1065880   0.0000000), wk =   0.0034722
        k(  260) = (   0.4166667   1.1547005   0.0000000), wk =   0.0034722
        k(  261) = (   0.4166667   1.2028131   0.0000000), wk =   0.0034722
        k(  262) = (   0.4166667   1.2509256   0.0000000), wk =   0.0034722
        k(  263) = (   0.4166667   1.2990381   0.0000000), wk =   0.0034722
        k(  264) = (   0.4166667   1.3471506   0.0000000), wk =   0.0034722
        k(  265) = (   0.4583333   0.2646189   0.0000000), wk =   0.0034722
        k(  266) = (   0.4583333   0.3127314   0.0000000), wk =   0.0034722
        k(  267) = (   0.4583333   0.3608439   0.0000000), wk =   0.0034722
        k(  268) = (   0.4583333   0.4089564   0.0000000), wk =   0.0034722
        k(  269) = (   0.4583333   0.4570690   0.0000000), wk =   0.0034722
        k(  270) = (   0.4583333   0.5051815   0.0000000), wk =   0.0034722
        k(  271) = (   0.4583333   0.5532940   0.0000000), wk =   0.0034722
        k(  272) = (   0.4583333   0.6014065   0.0000000), wk =   0.0034722
        k(  273) = (   0.4583333   0.6495191   0.0000000), wk =   0.0034722
        k(  274) = (   0.4583333   0.6976316   0.0000000), wk =   0.0034722
        k(  275) = (   0.4583333   0.7457441   0.0000000), wk =   0.0034722
        k(  276) = (   0.4583333   0.7938566   0.0000000), wk =   0.0034722
        k(  277) = (   0.4583333   0.8419691   0.0000000), wk =   0.0034722
        k(  278) = (   0.4583333   0.8900817   0.0000000), wk =   0.0034722
        k(  279) = (   0.4583333   0.9381942   0.0000000), wk =   0.0034722
        k(  280) = (   0.4583333   0.9863067   0.0000000), wk =   0.0034722
        k(  281) = (   0.4583333   1.0344192   0.0000000), wk =   0.0034722
        k(  282) = (   0.4583333   1.0825318   0.0000000), wk =   0.0034722
        k(  283) = (   0.4583333   1.1306443   0.0000000), wk =   0.0034722
        k(  284) = (   0.4583333   1.1787568   0.0000000), wk =   0.0034722
        k(  285) = (   0.4583333   1.2268693   0.0000000), wk =   0.0034722
        k(  286) = (   0.4583333   1.2749818   0.0000000), wk =   0.0034722
        k(  287) = (   0.4583333   1.3230944   0.0000000), wk =   0.0034722
        k(  288) = (   0.4583333   1.3712069   0.0000000), wk =   0.0034722
        k(  289) = (   0.5000000   0.2886751   0.0000000), wk =   0.0034722
        k(  290) = (   0.5000000   0.3367877   0.0000000), wk =   0.0034722
        k(  291) = (   0.5000000   0.3849002   0.0000000), wk =   0.0034722
        k(  292) = (   0.5000000   0.4330127   0.0000000), wk =   0.0034722
        k(  293) = (   0.5000000   0.4811252   0.0000000), wk =   0.0034722
        k(  294) = (   0.5000000   0.5292377   0.0000000), wk =   0.0034722
        k(  295) = (   0.5000000   0.5773503   0.0000000), wk =   0.0034722
        k(  296) = (   0.5000000   0.6254628   0.0000000), wk =   0.0034722
        k(  297) = (   0.5000000   0.6735753   0.0000000), wk =   0.0034722
        k(  298) = (   0.5000000   0.7216878   0.0000000), wk =   0.0034722
        k(  299) = (   0.5000000   0.7698004   0.0000000), wk =   0.0034722
        k(  300) = (   0.5000000   0.8179129   0.0000000), wk =   0.0034722
        k(  301) = (   0.5000000   0.8660254   0.0000000), wk =   0.0034722
        k(  302) = (   0.5000000   0.9141379   0.0000000), wk =   0.0034722
        k(  303) = (   0.5000000   0.9622504   0.0000000), wk =   0.0034722
        k(  304) = (   0.5000000   1.0103630   0.0000000), wk =   0.0034722
        k(  305) = (   0.5000000   1.0584755   0.0000000), wk =   0.0034722
        k(  306) = (   0.5000000   1.1065880   0.0000000), wk =   0.0034722
        k(  307) = (   0.5000000   1.1547005   0.0000000), wk =   0.0034722
        k(  308) = (   0.5000000   1.2028131   0.0000000), wk =   0.0034722
        k(  309) = (   0.5000000   1.2509256   0.0000000), wk =   0.0034722
        k(  310) = (   0.5000000   1.2990381   0.0000000), wk =   0.0034722
        k(  311) = (   0.5000000   1.3471506   0.0000000), wk =   0.0034722
        k(  312) = (   0.5000000   1.3952632   0.0000000), wk =   0.0034722
        k(  313) = (   0.5416667   0.3127314   0.0000000), wk =   0.0034722
        k(  314) = (   0.5416667   0.3608439   0.0000000), wk =   0.0034722
        k(  315) = (   0.5416667   0.4089564   0.0000000), wk =   0.0034722
        k(  316) = (   0.5416667   0.4570690   0.0000000), wk =   0.0034722
        k(  317) = (   0.5416667   0.5051815   0.0000000), wk =   0.0034722
        k(  318) = (   0.5416667   0.5532940   0.0000000), wk =   0.0034722
        k(  319) = (   0.5416667   0.6014065   0.0000000), wk =   0.0034722
        k(  320) = (   0.5416667   0.6495191   0.0000000), wk =   0.0034722
        k(  321) = (   0.5416667   0.6976316   0.0000000), wk =   0.0034722
        k(  322) = (   0.5416667   0.7457441   0.0000000), wk =   0.0034722
        k(  323) = (   0.5416667   0.7938566   0.0000000), wk =   0.0034722
        k(  324) = (   0.5416667   0.8419691   0.0000000), wk =   0.0034722
        k(  325) = (   0.5416667   0.8900817   0.0000000), wk =   0.0034722
        k(  326) = (   0.5416667   0.9381942   0.0000000), wk =   0.0034722
        k(  327) = (   0.5416667   0.9863067   0.0000000), wk =   0.0034722
        k(  328) = (   0.5416667   1.0344192   0.0000000), wk =   0.0034722
        k(  329) = (   0.5416667   1.0825318   0.0000000), wk =   0.0034722
        k(  330) = (   0.5416667   1.1306443   0.0000000), wk =   0.0034722
        k(  331) = (   0.5416667   1.1787568   0.0000000), wk =   0.0034722
        k(  332) = (   0.5416667   1.2268693   0.0000000), wk =   0.0034722
        k(  333) = (   0.5416667   1.2749818   0.0000000), wk =   0.0034722
        k(  334) = (   0.5416667   1.3230944   0.0000000), wk =   0.0034722
        k(  335) = (   0.5416667   1.3712069   0.0000000), wk =   0.0034722
        k(  336) = (   0.5416667   1.4193194   0.0000000), wk =   0.0034722
        k(  337) = (   0.5833333   0.3367877   0.0000000), wk =   0.0034722
        k(  338) = (   0.5833333   0.3849002   0.0000000), wk =   0.0034722
        k(  339) = (   0.5833333   0.4330127   0.0000000), wk =   0.0034722
        k(  340) = (   0.5833333   0.4811252   0.0000000), wk =   0.0034722
        k(  341) = (   0.5833333   0.5292377   0.0000000), wk =   0.0034722
        k(  342) = (   0.5833333   0.5773503   0.0000000), wk =   0.0034722
        k(  343) = (   0.5833333   0.6254628   0.0000000), wk =   0.0034722
        k(  344) = (   0.5833333   0.6735753   0.0000000), wk =   0.0034722
        k(  345) = (   0.5833333   0.7216878   0.0000000), wk =   0.0034722
        k(  346) = (   0.5833333   0.7698004   0.0000000), wk =   0.0034722
        k(  347) = (   0.5833333   0.8179129   0.0000000), wk =   0.0034722
        k(  348) = (   0.5833333   0.8660254   0.0000000), wk =   0.0034722
        k(  349) = (   0.5833333   0.9141379   0.0000000), wk =   0.0034722
        k(  350) = (   0.5833333   0.9622504   0.0000000), wk =   0.0034722
        k(  351) = (   0.5833333   1.0103630   0.0000000), wk =   0.0034722
        k(  352) = (   0.5833333   1.0584755   0.0000000), wk =   0.0034722
        k(  353) = (   0.5833333   1.1065880   0.0000000), wk =   0.0034722
        k(  354) = (   0.5833333   1.1547005   0.0000000), wk =   0.0034722
        k(  355) = (   0.5833333   1.2028131   0.0000000), wk =   0.0034722
        k(  356) = (   0.5833333   1.2509256   0.0000000), wk =   0.0034722
        k(  357) = (   0.5833333   1.2990381   0.0000000), wk =   0.0034722
        k(  358) = (   0.5833333   1.3471506   0.0000000), wk =   0.0034722
        k(  359) = (   0.5833333   1.3952632   0.0000000), wk =   0.0034722
        k(  360) = (   0.5833333   1.4433757   0.0000000), wk =   0.0034722
        k(  361) = (   0.6250000   0.3608439   0.0000000), wk =   0.0034722
        k(  362) = (   0.6250000   0.4089564   0.0000000), wk =   0.0034722
        k(  363) = (   0.6250000   0.4570690   0.0000000), wk =   0.0034722
        k(  364) = (   0.6250000   0.5051815   0.0000000), wk =   0.0034722
        k(  365) = (   0.6250000   0.5532940   0.0000000), wk =   0.0034722
        k(  366) = (   0.6250000   0.6014065   0.0000000), wk =   0.0034722
        k(  367) = (   0.6250000   0.6495191   0.0000000), wk =   0.0034722
        k(  368) = (   0.6250000   0.6976316   0.0000000), wk =   0.0034722
        k(  369) = (   0.6250000   0.7457441   0.0000000), wk =   0.0034722
        k(  370) = (   0.6250000   0.7938566   0.0000000), wk =   0.0034722
        k(  371) = (   0.6250000   0.8419691   0.0000000), wk =   0.0034722
        k(  372) = (   0.6250000   0.8900817   0.0000000), wk =   0.0034722
        k(  373) = (   0.6250000   0.9381942   0.0000000), wk =   0.0034722
        k(  374) = (   0.6250000   0.9863067   0.0000000), wk =   0.0034722
        k(  375) = (   0.6250000   1.0344192   0.0000000), wk =   0.0034722
        k(  376) = (   0.6250000   1.0825318   0.0000000), wk =   0.0034722
        k(  377) = (   0.6250000   1.1306443   0.0000000), wk =   0.0034722
        k(  378) = (   0.6250000   1.1787568   0.0000000), wk =   0.0034722
        k(  379) = (   0.6250000   1.2268693   0.0000000), wk =   0.0034722
        k(  380) = (   0.6250000   1.2749818   0.0000000), wk =   0.0034722
        k(  381) = (   0.6250000   1.3230944   0.0000000), wk =   0.0034722
        k(  382) = (   0.6250000   1.3712069   0.0000000), wk =   0.0034722
        k(  383) = (   0.6250000   1.4193194   0.0000000), wk =   0.0034722
        k(  384) = (   0.6250000   1.4674319   0.0000000), wk =   0.0034722
        k(  385) = (   0.6666667   0.3849002   0.0000000), wk =   0.0034722
        k(  386) = (   0.6666667   0.4330127   0.0000000), wk =   0.0034722
        k(  387) = (   0.6666667   0.4811252   0.0000000), wk =   0.0034722
        k(  388) = (   0.6666667   0.5292377   0.0000000), wk =   0.0034722
        k(  389) = (   0.6666667   0.5773503   0.0000000), wk =   0.0034722
        k(  390) = (   0.6666667   0.6254628   0.0000000), wk =   0.0034722
        k(  391) = (   0.6666667   0.6735753   0.0000000), wk =   0.0034722
        k(  392) = (   0.6666667   0.7216878   0.0000000), wk =   0.0034722
        k(  393) = (   0.6666667   0.7698004   0.0000000), wk =   0.0034722
        k(  394) = (   0.6666667   0.8179129   0.0000000), wk =   0.0034722
        k(  395) = (   0.6666667   0.8660254   0.0000000), wk =   0.0034722
        k(  396) = (   0.6666667   0.9141379   0.0000000), wk =   0.0034722
        k(  397) = (   0.6666667   0.9622504   0.0000000), wk =   0.0034722
        k(  398) = (   0.6666667   1.0103630   0.0000000), wk =   0.0034722
        k(  399) = (   0.6666667   1.0584755   0.0000000), wk =   0.0034722
        k(  400) = (   0.6666667   1.1065880   0.0000000), wk =   0.0034722
        k(  401) = (   0.6666667   1.1547005   0.0000000), wk =   0.0034722
        k(  402) = (   0.6666667   1.2028131   0.0000000), wk =   0.0034722
        k(  403) = (   0.6666667   1.2509256   0.0000000), wk =   0.0034722
        k(  404) = (   0.6666667   1.2990381   0.0000000), wk =   0.0034722
        k(  405) = (   0.6666667   1.3471506   0.0000000), wk =   0.0034722
        k(  406) = (   0.6666667   1.3952632   0.0000000), wk =   0.0034722
        k(  407) = (   0.6666667   1.4433757   0.0000000), wk =   0.0034722
        k(  408) = (   0.6666667   1.4914882   0.0000000), wk =   0.0034722
        k(  409) = (   0.7083333   0.4089564   0.0000000), wk =   0.0034722
        k(  410) = (   0.7083333   0.4570690   0.0000000), wk =   0.0034722
        k(  411) = (   0.7083333   0.5051815   0.0000000), wk =   0.0034722
        k(  412) = (   0.7083333   0.5532940   0.0000000), wk =   0.0034722
        k(  413) = (   0.7083333   0.6014065   0.0000000), wk =   0.0034722
        k(  414) = (   0.7083333   0.6495191   0.0000000), wk =   0.0034722
        k(  415) = (   0.7083333   0.6976316   0.0000000), wk =   0.0034722
        k(  416) = (   0.7083333   0.7457441   0.0000000), wk =   0.0034722
        k(  417) = (   0.7083333   0.7938566   0.0000000), wk =   0.0034722
        k(  418) = (   0.7083333   0.8419691   0.0000000), wk =   0.0034722
        k(  419) = (   0.7083333   0.8900817   0.0000000), wk =   0.0034722
        k(  420) = (   0.7083333   0.9381942   0.0000000), wk =   0.0034722
        k(  421) = (   0.7083333   0.9863067   0.0000000), wk =   0.0034722
        k(  422) = (   0.7083333   1.0344192   0.0000000), wk =   0.0034722
        k(  423) = (   0.7083333   1.0825318   0.0000000), wk =   0.0034722
        k(  424) = (   0.7083333   1.1306443   0.0000000), wk =   0.0034722
        k(  425) = (   0.7083333   1.1787568   0.0000000), wk =   0.0034722
        k(  426) = (   0.7083333   1.2268693   0.0000000), wk =   0.0034722
        k(  427) = (   0.7083333   1.2749818   0.0000000), wk =   0.0034722
        k(  428) = (   0.7083333   1.3230944   0.0000000), wk =   0.0034722
        k(  429) = (   0.7083333   1.3712069   0.0000000), wk =   0.0034722
        k(  430) = (   0.7083333   1.4193194   0.0000000), wk =   0.0034722
        k(  431) = (   0.7083333   1.4674319   0.0000000), wk =   0.0034722
        k(  432) = (   0.7083333   1.5155445   0.0000000), wk =   0.0034722
        k(  433) = (   0.7500000   0.4330127   0.0000000), wk =   0.0034722
        k(  434) = (   0.7500000   0.4811252   0.0000000), wk =   0.0034722
        k(  435) = (   0.7500000   0.5292377   0.0000000), wk =   0.0034722
        k(  436) = (   0.7500000   0.5773503   0.0000000), wk =   0.0034722
        k(  437) = (   0.7500000   0.6254628   0.0000000), wk =   0.0034722
        k(  438) = (   0.7500000   0.6735753   0.0000000), wk =   0.0034722
        k(  439) = (   0.7500000   0.7216878   0.0000000), wk =   0.0034722
        k(  440) = (   0.7500000   0.7698004   0.0000000), wk =   0.0034722
        k(  441) = (   0.7500000   0.8179129   0.0000000), wk =   0.0034722
        k(  442) = (   0.7500000   0.8660254   0.0000000), wk =   0.0034722
        k(  443) = (   0.7500000   0.9141379   0.0000000), wk =   0.0034722
        k(  444) = (   0.7500000   0.9622504   0.0000000), wk =   0.0034722
        k(  445) = (   0.7500000   1.0103630   0.0000000), wk =   0.0034722
        k(  446) = (   0.7500000   1.0584755   0.0000000), wk =   0.0034722
        k(  447) = (   0.7500000   1.1065880   0.0000000), wk =   0.0034722
        k(  448) = (   0.7500000   1.1547005   0.0000000), wk =   0.0034722
        k(  449) = (   0.7500000   1.2028131   0.0000000), wk =   0.0034722
        k(  450) = (   0.7500000   1.2509256   0.0000000), wk =   0.0034722
        k(  451) = (   0.7500000   1.2990381   0.0000000), wk =   0.0034722
        k(  452) = (   0.7500000   1.3471506   0.0000000), wk =   0.0034722
        k(  453) = (   0.7500000   1.3952632   0.0000000), wk =   0.0034722
        k(  454) = (   0.7500000   1.4433757   0.0000000), wk =   0.0034722
        k(  455) = (   0.7500000   1.4914882   0.0000000), wk =   0.0034722
        k(  456) = (   0.7500000   1.5396007   0.0000000), wk =   0.0034722
        k(  457) = (   0.7916667   0.4570690   0.0000000), wk =   0.0034722
        k(  458) = (   0.7916667   0.5051815   0.0000000), wk =   0.0034722
        k(  459) = (   0.7916667   0.5532940   0.0000000), wk =   0.0034722
        k(  460) = (   0.7916667   0.6014065   0.0000000), wk =   0.0034722
        k(  461) = (   0.7916667   0.6495191   0.0000000), wk =   0.0034722
        k(  462) = (   0.7916667   0.6976316   0.0000000), wk =   0.0034722
        k(  463) = (   0.7916667   0.7457441   0.0000000), wk =   0.0034722
        k(  464) = (   0.7916667   0.7938566   0.0000000), wk =   0.0034722
        k(  465) = (   0.7916667   0.8419691   0.0000000), wk =   0.0034722
        k(  466) = (   0.7916667   0.8900817   0.0000000), wk =   0.0034722
        k(  467) = (   0.7916667   0.9381942   0.0000000), wk =   0.0034722
        k(  468) = (   0.7916667   0.9863067   0.0000000), wk =   0.0034722
        k(  469) = (   0.7916667   1.0344192   0.0000000), wk =   0.0034722
        k(  470) = (   0.7916667   1.0825318   0.0000000), wk =   0.0034722
        k(  471) = (   0.7916667   1.1306443   0.0000000), wk =   0.0034722
        k(  472) = (   0.7916667   1.1787568   0.0000000), wk =   0.0034722
        k(  473) = (   0.7916667   1.2268693   0.0000000), wk =   0.0034722
        k(  474) = (   0.7916667   1.2749818   0.0000000), wk =   0.0034722
        k(  475) = (   0.7916667   1.3230944   0.0000000), wk =   0.0034722
        k(  476) = (   0.7916667   1.3712069   0.0000000), wk =   0.0034722
        k(  477) = (   0.7916667   1.4193194   0.0000000), wk =   0.0034722
        k(  478) = (   0.7916667   1.4674319   0.0000000), wk =   0.0034722
        k(  479) = (   0.7916667   1.5155445   0.0000000), wk =   0.0034722
        k(  480) = (   0.7916667   1.5636570   0.0000000), wk =   0.0034722
        k(  481) = (   0.8333333   0.4811252   0.0000000), wk =   0.0034722
        k(  482) = (   0.8333333   0.5292377   0.0000000), wk =   0.0034722
        k(  483) = (   0.8333333   0.5773503   0.0000000), wk =   0.0034722
        k(  484) = (   0.8333333   0.6254628   0.0000000), wk =   0.0034722
        k(  485) = (   0.8333333   0.6735753   0.0000000), wk =   0.0034722
        k(  486) = (   0.8333333   0.7216878   0.0000000), wk =   0.0034722
        k(  487) = (   0.8333333   0.7698004   0.0000000), wk =   0.0034722
        k(  488) = (   0.8333333   0.8179129   0.0000000), wk =   0.0034722
        k(  489) = (   0.8333333   0.8660254   0.0000000), wk =   0.0034722
        k(  490) = (   0.8333333   0.9141379   0.0000000), wk =   0.0034722
        k(  491) = (   0.8333333   0.9622504   0.0000000), wk =   0.0034722
        k(  492) = (   0.8333333   1.0103630   0.0000000), wk =   0.0034722
        k(  493) = (   0.8333333   1.0584755   0.0000000), wk =   0.0034722
        k(  494) = (   0.8333333   1.1065880   0.0000000), wk =   0.0034722
        k(  495) = (   0.8333333   1.1547005   0.0000000), wk =   0.0034722
        k(  496) = (   0.8333333   1.2028131   0.0000000), wk =   0.0034722
        k(  497) = (   0.8333333   1.2509256   0.0000000), wk =   0.0034722
        k(  498) = (   0.8333333   1.2990381   0.0000000), wk =   0.0034722
        k(  499) = (   0.8333333   1.3471506   0.0000000), wk =   0.0034722
        k(  500) = (   0.8333333   1.3952632   0.0000000), wk =   0.0034722
        k(  501) = (   0.8333333   1.4433757   0.0000000), wk =   0.0034722
        k(  502) = (   0.8333333   1.4914882   0.0000000), wk =   0.0034722
        k(  503) = (   0.8333333   1.5396007   0.0000000), wk =   0.0034722
        k(  504) = (   0.8333333   1.5877132   0.0000000), wk =   0.0034722
        k(  505) = (   0.8750000   0.5051815   0.0000000), wk =   0.0034722
        k(  506) = (   0.8750000   0.5532940   0.0000000), wk =   0.0034722
        k(  507) = (   0.8750000   0.6014065   0.0000000), wk =   0.0034722
        k(  508) = (   0.8750000   0.6495191   0.0000000), wk =   0.0034722
        k(  509) = (   0.8750000   0.6976316   0.0000000), wk =   0.0034722
        k(  510) = (   0.8750000   0.7457441   0.0000000), wk =   0.0034722
        k(  511) = (   0.8750000   0.7938566   0.0000000), wk =   0.0034722
        k(  512) = (   0.8750000   0.8419691   0.0000000), wk =   0.0034722
        k(  513) = (   0.8750000   0.8900817   0.0000000), wk =   0.0034722
        k(  514) = (   0.8750000   0.9381942   0.0000000), wk =   0.0034722
        k(  515) = (   0.8750000   0.9863067   0.0000000), wk =   0.0034722
        k(  516) = (   0.8750000   1.0344192   0.0000000), wk =   0.0034722
        k(  517) = (   0.8750000   1.0825318   0.0000000), wk =   0.0034722
        k(  518) = (   0.8750000   1.1306443   0.0000000), wk =   0.0034722
        k(  519) = (   0.8750000   1.1787568   0.0000000), wk =   0.0034722
        k(  520) = (   0.8750000   1.2268693   0.0000000), wk =   0.0034722
        k(  521) = (   0.8750000   1.2749818   0.0000000), wk =   0.0034722
        k(  522) = (   0.8750000   1.3230944   0.0000000), wk =   0.0034722
        k(  523) = (   0.8750000   1.3712069   0.0000000), wk =   0.0034722
        k(  524) = (   0.8750000   1.4193194   0.0000000), wk =   0.0034722
        k(  525) = (   0.8750000   1.4674319   0.0000000), wk =   0.0034722
        k(  526) = (   0.8750000   1.5155445   0.0000000), wk =   0.0034722
        k(  527) = (   0.8750000   1.5636570   0.0000000), wk =   0.0034722
        k(  528) = (   0.8750000   1.6117695   0.0000000), wk =   0.0034722
        k(  529) = (   0.9166667   0.5292377   0.0000000), wk =   0.0034722
        k(  530) = (   0.9166667   0.5773503   0.0000000), wk =   0.0034722
        k(  531) = (   0.9166667   0.6254628   0.0000000), wk =   0.0034722
        k(  532) = (   0.9166667   0.6735753   0.0000000), wk =   0.0034722
        k(  533) = (   0.9166667   0.7216878   0.0000000), wk =   0.0034722
        k(  534) = (   0.9166667   0.7698004   0.0000000), wk =   0.0034722
        k(  535) = (   0.9166667   0.8179129   0.0000000), wk =   0.0034722
        k(  536) = (   0.9166667   0.8660254   0.0000000), wk =   0.0034722
        k(  537) = (   0.9166667   0.9141379   0.0000000), wk =   0.0034722
        k(  538) = (   0.9166667   0.9622504   0.0000000), wk =   0.0034722
        k(  539) = (   0.9166667   1.0103630   0.0000000), wk =   0.0034722
        k(  540) = (   0.9166667   1.0584755   0.0000000), wk =   0.0034722
        k(  541) = (   0.9166667   1.1065880   0.0000000), wk =   0.0034722
        k(  542) = (   0.9166667   1.1547005   0.0000000), wk =   0.0034722
        k(  543) = (   0.9166667   1.2028131   0.0000000), wk =   0.0034722
        k(  544) = (   0.9166667   1.2509256   0.0000000), wk =   0.0034722
        k(  545) = (   0.9166667   1.2990381   0.0000000), wk =   0.0034722
        k(  546) = (   0.9166667   1.3471506   0.0000000), wk =   0.0034722
        k(  547) = (   0.9166667   1.3952632   0.0000000), wk =   0.0034722
        k(  548) = (   0.9166667   1.4433757   0.0000000), wk =   0.0034722
        k(  549) = (   0.9166667   1.4914882   0.0000000), wk =   0.0034722
        k(  550) = (   0.9166667   1.5396007   0.0000000), wk =   0.0034722
        k(  551) = (   0.9166667   1.5877132   0.0000000), wk =   0.0034722
        k(  552) = (   0.9166667   1.6358258   0.0000000), wk =   0.0034722
        k(  553) = (   0.9583333   0.5532940   0.0000000), wk =   0.0034722
        k(  554) = (   0.9583333   0.6014065   0.0000000), wk =   0.0034722
        k(  555) = (   0.9583333   0.6495191   0.0000000), wk =   0.0034722
        k(  556) = (   0.9583333   0.6976316   0.0000000), wk =   0.0034722
        k(  557) = (   0.9583333   0.7457441   0.0000000), wk =   0.0034722
        k(  558) = (   0.9583333   0.7938566   0.0000000), wk =   0.0034722
        k(  559) = (   0.9583333   0.8419691   0.0000000), wk =   0.0034722
        k(  560) = (   0.9583333   0.8900817   0.0000000), wk =   0.0034722
        k(  561) = (   0.9583333   0.9381942   0.0000000), wk =   0.0034722
        k(  562) = (   0.9583333   0.9863067   0.0000000), wk =   0.0034722
        k(  563) = (   0.9583333   1.0344192   0.0000000), wk =   0.0034722
        k(  564) = (   0.9583333   1.0825318   0.0000000), wk =   0.0034722
        k(  565) = (   0.9583333   1.1306443   0.0000000), wk =   0.0034722
        k(  566) = (   0.9583333   1.1787568   0.0000000), wk =   0.0034722
        k(  567) = (   0.9583333   1.2268693   0.0000000), wk =   0.0034722
        k(  568) = (   0.9583333   1.2749818   0.0000000), wk =   0.0034722
        k(  569) = (   0.9583333   1.3230944   0.0000000), wk =   0.0034722
        k(  570) = (   0.9583333   1.3712069   0.0000000), wk =   0.0034722
        k(  571) = (   0.9583333   1.4193194   0.0000000), wk =   0.0034722
        k(  572) = (   0.9583333   1.4674319   0.0000000), wk =   0.0034722
        k(  573) = (   0.9583333   1.5155445   0.0000000), wk =   0.0034722
        k(  574) = (   0.9583333   1.5636570   0.0000000), wk =   0.0034722
        k(  575) = (   0.9583333   1.6117695   0.0000000), wk =   0.0034722
        k(  576) = (   0.9583333   1.6598820   0.0000000), wk =   0.0034722

                       cryst. coord.
        k(    1) = (   0.0000000   0.0000000   0.0000000), wk =   0.0034722
        k(    2) = (   0.0000000   0.0416667   0.0000000), wk =   0.0034722
        k(    3) = (   0.0000000   0.0833333   0.0000000), wk =   0.0034722
        k(    4) = (   0.0000000   0.1250000   0.0000000), wk =   0.0034722
        k(    5) = (   0.0000000   0.1666667   0.0000000), wk =   0.0034722
        k(    6) = (   0.0000000   0.2083333   0.0000000), wk =   0.0034722
        k(    7) = (   0.0000000   0.2500000   0.0000000), wk =   0.0034722
        k(    8) = (   0.0000000   0.2916667   0.0000000), wk =   0.0034722
        k(    9) = (   0.0000000   0.3333333   0.0000000), wk =   0.0034722
        k(   10) = (   0.0000000   0.3750000   0.0000000), wk =   0.0034722
        k(   11) = (   0.0000000   0.4166667   0.0000000), wk =   0.0034722
        k(   12) = (   0.0000000   0.4583333   0.0000000), wk =   0.0034722
        k(   13) = (   0.0000000   0.5000000   0.0000000), wk =   0.0034722
        k(   14) = (   0.0000000   0.5416667   0.0000000), wk =   0.0034722
        k(   15) = (   0.0000000   0.5833333   0.0000000), wk =   0.0034722
        k(   16) = (   0.0000000   0.6250000   0.0000000), wk =   0.0034722
        k(   17) = (   0.0000000   0.6666667   0.0000000), wk =   0.0034722
        k(   18) = (   0.0000000   0.7083333   0.0000000), wk =   0.0034722
        k(   19) = (   0.0000000   0.7500000   0.0000000), wk =   0.0034722
        k(   20) = (   0.0000000   0.7916667   0.0000000), wk =   0.0034722
        k(   21) = (   0.0000000   0.8333333   0.0000000), wk =   0.0034722
        k(   22) = (   0.0000000   0.8750000   0.0000000), wk =   0.0034722
        k(   23) = (   0.0000000   0.9166667   0.0000000), wk =   0.0034722
        k(   24) = (   0.0000000   0.9583333   0.0000000), wk =   0.0034722
        k(   25) = (   0.0416667  -0.0000000   0.0000000), wk =   0.0034722
        k(   26) = (   0.0416667   0.0416667   0.0000000), wk =   0.0034722
        k(   27) = (   0.0416667   0.0833333   0.0000000), wk =   0.0034722
        k(   28) = (   0.0416667   0.1250000   0.0000000), wk =   0.0034722
        k(   29) = (   0.0416667   0.1666667   0.0000000), wk =   0.0034722
        k(   30) = (   0.0416667   0.2083333   0.0000000), wk =   0.0034722
        k(   31) = (   0.0416667   0.2500000   0.0000000), wk =   0.0034722
        k(   32) = (   0.0416667   0.2916667   0.0000000), wk =   0.0034722
        k(   33) = (   0.0416667   0.3333333   0.0000000), wk =   0.0034722
        k(   34) = (   0.0416667   0.3750000   0.0000000), wk =   0.0034722
        k(   35) = (   0.0416667   0.4166667   0.0000000), wk =   0.0034722
        k(   36) = (   0.0416667   0.4583333   0.0000000), wk =   0.0034722
        k(   37) = (   0.0416667   0.5000000   0.0000000), wk =   0.0034722
        k(   38) = (   0.0416667   0.5416667   0.0000000), wk =   0.0034722
        k(   39) = (   0.0416667   0.5833333   0.0000000), wk =   0.0034722
        k(   40) = (   0.0416667   0.6250000   0.0000000), wk =   0.0034722
        k(   41) = (   0.0416667   0.6666667   0.0000000), wk =   0.0034722
        k(   42) = (   0.0416667   0.7083333   0.0000000), wk =   0.0034722
        k(   43) = (   0.0416667   0.7500000   0.0000000), wk =   0.0034722
        k(   44) = (   0.0416667   0.7916667   0.0000000), wk =   0.0034722
        k(   45) = (   0.0416667   0.8333333   0.0000000), wk =   0.0034722
        k(   46) = (   0.0416667   0.8750000   0.0000000), wk =   0.0034722
        k(   47) = (   0.0416667   0.9166667   0.0000000), wk =   0.0034722
        k(   48) = (   0.0416667   0.9583333   0.0000000), wk =   0.0034722
        k(   49) = (   0.0833333   0.0000000   0.0000000), wk =   0.0034722
        k(   50) = (   0.0833333   0.0416667   0.0000000), wk =   0.0034722
        k(   51) = (   0.0833333   0.0833333   0.0000000), wk =   0.0034722
        k(   52) = (   0.0833333   0.1250000   0.0000000), wk =   0.0034722
        k(   53) = (   0.0833333   0.1666667   0.0000000), wk =   0.0034722
        k(   54) = (   0.0833333   0.2083333   0.0000000), wk =   0.0034722
        k(   55) = (   0.0833333   0.2500000   0.0000000), wk =   0.0034722
        k(   56) = (   0.0833333   0.2916667   0.0000000), wk =   0.0034722
        k(   57) = (   0.0833333   0.3333333   0.0000000), wk =   0.0034722
        k(   58) = (   0.0833333   0.3750000   0.0000000), wk =   0.0034722
        k(   59) = (   0.0833333   0.4166667   0.0000000), wk =   0.0034722
        k(   60) = (   0.0833333   0.4583333   0.0000000), wk =   0.0034722
        k(   61) = (   0.0833333   0.5000000   0.0000000), wk =   0.0034722
        k(   62) = (   0.0833333   0.5416667   0.0000000), wk =   0.0034722
        k(   63) = (   0.0833333   0.5833333   0.0000000), wk =   0.0034722
        k(   64) = (   0.0833333   0.6250000   0.0000000), wk =   0.0034722
        k(   65) = (   0.0833333   0.6666667   0.0000000), wk =   0.0034722
        k(   66) = (   0.0833333   0.7083333   0.0000000), wk =   0.0034722
        k(   67) = (   0.0833333   0.7500000   0.0000000), wk =   0.0034722
        k(   68) = (   0.0833333   0.7916667   0.0000000), wk =   0.0034722
        k(   69) = (   0.0833333   0.8333333   0.0000000), wk =   0.0034722
        k(   70) = (   0.0833333   0.8750000   0.0000000), wk =   0.0034722
        k(   71) = (   0.0833333   0.9166667   0.0000000), wk =   0.0034722
        k(   72) = (   0.0833333   0.9583333   0.0000000), wk =   0.0034722
        k(   73) = (   0.1250000   0.0000000   0.0000000), wk =   0.0034722
        k(   74) = (   0.1250000   0.0416667   0.0000000), wk =   0.0034722
        k(   75) = (   0.1250000   0.0833333   0.0000000), wk =   0.0034722
        k(   76) = (   0.1250000   0.1250000   0.0000000), wk =   0.0034722
        k(   77) = (   0.1250000   0.1666667   0.0000000), wk =   0.0034722
        k(   78) = (   0.1250000   0.2083333   0.0000000), wk =   0.0034722
        k(   79) = (   0.1250000   0.2500000   0.0000000), wk =   0.0034722
        k(   80) = (   0.1250000   0.2916667   0.0000000), wk =   0.0034722
        k(   81) = (   0.1250000   0.3333333   0.0000000), wk =   0.0034722
        k(   82) = (   0.1250000   0.3750000   0.0000000), wk =   0.0034722
        k(   83) = (   0.1250000   0.4166667   0.0000000), wk =   0.0034722
        k(   84) = (   0.1250000   0.4583333   0.0000000), wk =   0.0034722
        k(   85) = (   0.1250000   0.5000000   0.0000000), wk =   0.0034722
        k(   86) = (   0.1250000   0.5416667   0.0000000), wk =   0.0034722
        k(   87) = (   0.1250000   0.5833333   0.0000000), wk =   0.0034722
        k(   88) = (   0.1250000   0.6250000   0.0000000), wk =   0.0034722
        k(   89) = (   0.1250000   0.6666667   0.0000000), wk =   0.0034722
        k(   90) = (   0.1250000   0.7083333   0.0000000), wk =   0.0034722
        k(   91) = (   0.1250000   0.7500000   0.0000000), wk =   0.0034722
        k(   92) = (   0.1250000   0.7916667   0.0000000), wk =   0.0034722
        k(   93) = (   0.1250000   0.8333333   0.0000000), wk =   0.0034722
        k(   94) = (   0.1250000   0.8750000   0.0000000), wk =   0.0034722
        k(   95) = (   0.1250000   0.9166667   0.0000000), wk =   0.0034722
        k(   96) = (   0.1250000   0.9583333   0.0000000), wk =   0.0034722
        k(   97) = (   0.1666667  -0.0000000   0.0000000), wk =   0.0034722
        k(   98) = (   0.1666667   0.0416667   0.0000000), wk =   0.0034722
        k(   99) = (   0.1666667   0.0833333   0.0000000), wk =   0.0034722
        k(  100) = (   0.1666667   0.1250000   0.0000000), wk =   0.0034722
        k(  101) = (   0.1666667   0.1666667   0.0000000), wk =   0.0034722
        k(  102) = (   0.1666667   0.2083333   0.0000000), wk =   0.0034722
        k(  103) = (   0.1666667   0.2500000   0.0000000), wk =   0.0034722
        k(  104) = (   0.1666667   0.2916667   0.0000000), wk =   0.0034722
        k(  105) = (   0.1666667   0.3333333   0.0000000), wk =   0.0034722
        k(  106) = (   0.1666667   0.3750000   0.0000000), wk =   0.0034722
        k(  107) = (   0.1666667   0.4166667   0.0000000), wk =   0.0034722
        k(  108) = (   0.1666667   0.4583333   0.0000000), wk =   0.0034722
        k(  109) = (   0.1666667   0.5000000   0.0000000), wk =   0.0034722
        k(  110) = (   0.1666667   0.5416667   0.0000000), wk =   0.0034722
        k(  111) = (   0.1666667   0.5833333   0.0000000), wk =   0.0034722
        k(  112) = (   0.1666667   0.6250000   0.0000000), wk =   0.0034722
        k(  113) = (   0.1666667   0.6666667   0.0000000), wk =   0.0034722
        k(  114) = (   0.1666667   0.7083333   0.0000000), wk =   0.0034722
        k(  115) = (   0.1666667   0.7500000   0.0000000), wk =   0.0034722
        k(  116) = (   0.1666667   0.7916667   0.0000000), wk =   0.0034722
        k(  117) = (   0.1666667   0.8333333   0.0000000), wk =   0.0034722
        k(  118) = (   0.1666667   0.8750000   0.0000000), wk =   0.0034722
        k(  119) = (   0.1666667   0.9166667   0.0000000), wk =   0.0034722
        k(  120) = (   0.1666667   0.9583333   0.0000000), wk =   0.0034722
        k(  121) = (   0.2083333   0.0000000   0.0000000), wk =   0.0034722
        k(  122) = (   0.2083333   0.0416667   0.0000000), wk =   0.0034722
        k(  123) = (   0.2083333   0.0833333   0.0000000), wk =   0.0034722
        k(  124) = (   0.2083333   0.1250000   0.0000000), wk =   0.0034722
        k(  125) = (   0.2083333   0.1666667   0.0000000), wk =   0.0034722
        k(  126) = (   0.2083333   0.2083333   0.0000000), wk =   0.0034722
        k(  127) = (   0.2083333   0.2500000   0.0000000), wk =   0.0034722
        k(  128) = (   0.2083333   0.2916667   0.0000000), wk =   0.0034722
        k(  129) = (   0.2083333   0.3333333   0.0000000), wk =   0.0034722
        k(  130) = (   0.2083333   0.3750000   0.0000000), wk =   0.0034722
        k(  131) = (   0.2083333   0.4166667   0.0000000), wk =   0.0034722
        k(  132) = (   0.2083333   0.4583333   0.0000000), wk =   0.0034722
        k(  133) = (   0.2083333   0.5000000   0.0000000), wk =   0.0034722
        k(  134) = (   0.2083333   0.5416667   0.0000000), wk =   0.0034722
        k(  135) = (   0.2083333   0.5833333   0.0000000), wk =   0.0034722
        k(  136) = (   0.2083333   0.6250000   0.0000000), wk =   0.0034722
        k(  137) = (   0.2083333   0.6666667   0.0000000), wk =   0.0034722
        k(  138) = (   0.2083333   0.7083333   0.0000000), wk =   0.0034722
        k(  139) = (   0.2083333   0.7500000   0.0000000), wk =   0.0034722
        k(  140) = (   0.2083333   0.7916667   0.0000000), wk =   0.0034722
        k(  141) = (   0.2083333   0.8333333   0.0000000), wk =   0.0034722
        k(  142) = (   0.2083333   0.8750000   0.0000000), wk =   0.0034722
        k(  143) = (   0.2083333   0.9166667   0.0000000), wk =   0.0034722
        k(  144) = (   0.2083333   0.9583333   0.0000000), wk =   0.0034722
        k(  145) = (   0.2500000   0.0000000   0.0000000), wk =   0.0034722
        k(  146) = (   0.2500000   0.0416667   0.0000000), wk =   0.0034722
        k(  147) = (   0.2500000   0.0833333   0.0000000), wk =   0.0034722
        k(  148) = (   0.2500000   0.1250000   0.0000000), wk =   0.0034722
        k(  149) = (   0.2500000   0.1666667   0.0000000), wk =   0.0034722
        k(  150) = (   0.2500000   0.2083333   0.0000000), wk =   0.0034722
        k(  151) = (   0.2500000   0.2500000   0.0000000), wk =   0.0034722
        k(  152) = (   0.2500000   0.2916667   0.0000000), wk =   0.0034722
        k(  153) = (   0.2500000   0.3333333   0.0000000), wk =   0.0034722
        k(  154) = (   0.2500000   0.3750000   0.0000000), wk =   0.0034722
        k(  155) = (   0.2500000   0.4166667   0.0000000), wk =   0.0034722
        k(  156) = (   0.2500000   0.4583333   0.0000000), wk =   0.0034722
        k(  157) = (   0.2500000   0.5000000   0.0000000), wk =   0.0034722
        k(  158) = (   0.2500000   0.5416667   0.0000000), wk =   0.0034722
        k(  159) = (   0.2500000   0.5833333   0.0000000), wk =   0.0034722
        k(  160) = (   0.2500000   0.6250000   0.0000000), wk =   0.0034722
        k(  161) = (   0.2500000   0.6666667   0.0000000), wk =   0.0034722
        k(  162) = (   0.2500000   0.7083333   0.0000000), wk =   0.0034722
        k(  163) = (   0.2500000   0.7500000   0.0000000), wk =   0.0034722
        k(  164) = (   0.2500000   0.7916667   0.0000000), wk =   0.0034722
        k(  165) = (   0.2500000   0.8333333   0.0000000), wk =   0.0034722
        k(  166) = (   0.2500000   0.8750000   0.0000000), wk =   0.0034722
        k(  167) = (   0.2500000   0.9166667   0.0000000), wk =   0.0034722
        k(  168) = (   0.2500000   0.9583333   0.0000000), wk =   0.0034722
        k(  169) = (   0.2916667   0.0000000   0.0000000), wk =   0.0034722
        k(  170) = (   0.2916667   0.0416667   0.0000000), wk =   0.0034722
        k(  171) = (   0.2916667   0.0833333   0.0000000), wk =   0.0034722
        k(  172) = (   0.2916667   0.1250000   0.0000000), wk =   0.0034722
        k(  173) = (   0.2916667   0.1666667   0.0000000), wk =   0.0034722
        k(  174) = (   0.2916667   0.2083333   0.0000000), wk =   0.0034722
        k(  175) = (   0.2916667   0.2500000   0.0000000), wk =   0.0034722
        k(  176) = (   0.2916667   0.2916667   0.0000000), wk =   0.0034722
        k(  177) = (   0.2916667   0.3333333   0.0000000), wk =   0.0034722
        k(  178) = (   0.2916667   0.3750000   0.0000000), wk =   0.0034722
        k(  179) = (   0.2916667   0.4166667   0.0000000), wk =   0.0034722
        k(  180) = (   0.2916667   0.4583333   0.0000000), wk =   0.0034722
        k(  181) = (   0.2916667   0.5000000   0.0000000), wk =   0.0034722
        k(  182) = (   0.2916667   0.5416667   0.0000000), wk =   0.0034722
        k(  183) = (   0.2916667   0.5833333   0.0000000), wk =   0.0034722
        k(  184) = (   0.2916667   0.6250000   0.0000000), wk =   0.0034722
        k(  185) = (   0.2916667   0.6666667   0.0000000), wk =   0.0034722
        k(  186) = (   0.2916667   0.7083333   0.0000000), wk =   0.0034722
        k(  187) = (   0.2916667   0.7500000   0.0000000), wk =   0.0034722
        k(  188) = (   0.2916667   0.7916667   0.0000000), wk =   0.0034722
        k(  189) = (   0.2916667   0.8333333   0.0000000), wk =   0.0034722
        k(  190) = (   0.2916667   0.8750000   0.0000000), wk =   0.0034722
        k(  191) = (   0.2916667   0.9166667   0.0000000), wk =   0.0034722
        k(  192) = (   0.2916667   0.9583333   0.0000000), wk =   0.0034722
        k(  193) = (   0.3333333   0.0000000   0.0000000), wk =   0.0034722
        k(  194) = (   0.3333333   0.0416667   0.0000000), wk =   0.0034722
        k(  195) = (   0.3333333   0.0833333   0.0000000), wk =   0.0034722
        k(  196) = (   0.3333333   0.1250000   0.0000000), wk =   0.0034722
        k(  197) = (   0.3333333   0.1666667   0.0000000), wk =   0.0034722
        k(  198) = (   0.3333333   0.2083333   0.0000000), wk =   0.0034722
        k(  199) = (   0.3333333   0.2500000   0.0000000), wk =   0.0034722
        k(  200) = (   0.3333333   0.2916667   0.0000000), wk =   0.0034722
        k(  201) = (   0.3333333   0.3333333   0.0000000), wk =   0.0034722
        k(  202) = (   0.3333333   0.3750000   0.0000000), wk =   0.0034722
        k(  203) = (   0.3333333   0.4166667   0.0000000), wk =   0.0034722
        k(  204) = (   0.3333333   0.4583333   0.0000000), wk =   0.0034722
        k(  205) = (   0.3333333   0.5000000   0.0000000), wk =   0.0034722
        k(  206) = (   0.3333333   0.5416667   0.0000000), wk =   0.0034722
        k(  207) = (   0.3333333   0.5833333   0.0000000), wk =   0.0034722
        k(  208) = (   0.3333333   0.6250000   0.0000000), wk =   0.0034722
        k(  209) = (   0.3333333   0.6666667   0.0000000), wk =   0.0034722
        k(  210) = (   0.3333333   0.7083333   0.0000000), wk =   0.0034722
        k(  211) = (   0.3333333   0.7500000   0.0000000), wk =   0.0034722
        k(  212) = (   0.3333333   0.7916667   0.0000000), wk =   0.0034722
        k(  213) = (   0.3333333   0.8333333   0.0000000), wk =   0.0034722
        k(  214) = (   0.3333333   0.8750000   0.0000000), wk =   0.0034722
        k(  215) = (   0.3333333   0.9166667   0.0000000), wk =   0.0034722
        k(  216) = (   0.3333333   0.9583333   0.0000000), wk =   0.0034722
        k(  217) = (   0.3750000   0.0000000   0.0000000), wk =   0.0034722
        k(  218) = (   0.3750000   0.0416667   0.0000000), wk =   0.0034722
        k(  219) = (   0.3750000   0.0833333   0.0000000), wk =   0.0034722
        k(  220) = (   0.3750000   0.1250000   0.0000000), wk =   0.0034722
        k(  221) = (   0.3750000   0.1666667   0.0000000), wk =   0.0034722
        k(  222) = (   0.3750000   0.2083333   0.0000000), wk =   0.0034722
        k(  223) = (   0.3750000   0.2500000   0.0000000), wk =   0.0034722
        k(  224) = (   0.3750000   0.2916667   0.0000000), wk =   0.0034722
        k(  225) = (   0.3750000   0.3333333   0.0000000), wk =   0.0034722
        k(  226) = (   0.3750000   0.3750000   0.0000000), wk =   0.0034722
        k(  227) = (   0.3750000   0.4166667   0.0000000), wk =   0.0034722
        k(  228) = (   0.3750000   0.4583333   0.0000000), wk =   0.0034722
        k(  229) = (   0.3750000   0.5000000   0.0000000), wk =   0.0034722
        k(  230) = (   0.3750000   0.5416667   0.0000000), wk =   0.0034722
        k(  231) = (   0.3750000   0.5833333   0.0000000), wk =   0.0034722
        k(  232) = (   0.3750000   0.6250000   0.0000000), wk =   0.0034722
        k(  233) = (   0.3750000   0.6666667   0.0000000), wk =   0.0034722
        k(  234) = (   0.3750000   0.7083333   0.0000000), wk =   0.0034722
        k(  235) = (   0.3750000   0.7500000   0.0000000), wk =   0.0034722
        k(  236) = (   0.3750000   0.7916667   0.0000000), wk =   0.0034722
        k(  237) = (   0.3750000   0.8333333   0.0000000), wk =   0.0034722
        k(  238) = (   0.3750000   0.8750000   0.0000000), wk =   0.0034722
        k(  239) = (   0.3750000   0.9166667   0.0000000), wk =   0.0034722
        k(  240) = (   0.3750000   0.9583333   0.0000000), wk =   0.0034722
        k(  241) = (   0.4166667   0.0000000   0.0000000), wk =   0.0034722
        k(  242) = (   0.4166667   0.0416667   0.0000000), wk =   0.0034722
        k(  243) = (   0.4166667   0.0833333   0.0000000), wk =   0.0034722
        k(  244) = (   0.4166667   0.1250000   0.0000000), wk =   0.0034722
        k(  245) = (   0.4166667   0.1666667   0.0000000), wk =   0.0034722
        k(  246) = (   0.4166667   0.2083333   0.0000000), wk =   0.0034722
        k(  247) = (   0.4166667   0.2500000   0.0000000), wk =   0.0034722
        k(  248) = (   0.4166667   0.2916667   0.0000000), wk =   0.0034722
        k(  249) = (   0.4166667   0.3333333   0.0000000), wk =   0.0034722
        k(  250) = (   0.4166667   0.3750000   0.0000000), wk =   0.0034722
        k(  251) = (   0.4166667   0.4166667   0.0000000), wk =   0.0034722
        k(  252) = (   0.4166667   0.4583333   0.0000000), wk =   0.0034722
        k(  253) = (   0.4166667   0.5000000   0.0000000), wk =   0.0034722
        k(  254) = (   0.4166667   0.5416667   0.0000000), wk =   0.0034722
        k(  255) = (   0.4166667   0.5833333   0.0000000), wk =   0.0034722
        k(  256) = (   0.4166667   0.6250000   0.0000000), wk =   0.0034722
        k(  257) = (   0.4166667   0.6666667   0.0000000), wk =   0.0034722
        k(  258) = (   0.4166667   0.7083333   0.0000000), wk =   0.0034722
        k(  259) = (   0.4166667   0.7500000   0.0000000), wk =   0.0034722
        k(  260) = (   0.4166667   0.7916667   0.0000000), wk =   0.0034722
        k(  261) = (   0.4166667   0.8333333   0.0000000), wk =   0.0034722
        k(  262) = (   0.4166667   0.8750000   0.0000000), wk =   0.0034722
        k(  263) = (   0.4166667   0.9166667   0.0000000), wk =   0.0034722
        k(  264) = (   0.4166667   0.9583333   0.0000000), wk =   0.0034722
        k(  265) = (   0.4583333  -0.0000000   0.0000000), wk =   0.0034722
        k(  266) = (   0.4583333   0.0416667   0.0000000), wk =   0.0034722
        k(  267) = (   0.4583333   0.0833333   0.0000000), wk =   0.0034722
        k(  268) = (   0.4583333   0.1250000   0.0000000), wk =   0.0034722
        k(  269) = (   0.4583333   0.1666667   0.0000000), wk =   0.0034722
        k(  270) = (   0.4583333   0.2083333   0.0000000), wk =   0.0034722
        k(  271) = (   0.4583333   0.2500000   0.0000000), wk =   0.0034722
        k(  272) = (   0.4583333   0.2916667   0.0000000), wk =   0.0034722
        k(  273) = (   0.4583333   0.3333333   0.0000000), wk =   0.0034722
        k(  274) = (   0.4583333   0.3750000   0.0000000), wk =   0.0034722
        k(  275) = (   0.4583333   0.4166667   0.0000000), wk =   0.0034722
        k(  276) = (   0.4583333   0.4583333   0.0000000), wk =   0.0034722
        k(  277) = (   0.4583333   0.5000000   0.0000000), wk =   0.0034722
        k(  278) = (   0.4583333   0.5416667   0.0000000), wk =   0.0034722
        k(  279) = (   0.4583333   0.5833333   0.0000000), wk =   0.0034722
        k(  280) = (   0.4583333   0.6250000   0.0000000), wk =   0.0034722
        k(  281) = (   0.4583333   0.6666667   0.0000000), wk =   0.0034722
        k(  282) = (   0.4583333   0.7083333   0.0000000), wk =   0.0034722
        k(  283) = (   0.4583333   0.7500000   0.0000000), wk =   0.0034722
        k(  284) = (   0.4583333   0.7916667   0.0000000), wk =   0.0034722
        k(  285) = (   0.4583333   0.8333333   0.0000000), wk =   0.0034722
        k(  286) = (   0.4583333   0.8750000   0.0000000), wk =   0.0034722
        k(  287) = (   0.4583333   0.9166667   0.0000000), wk =   0.0034722
        k(  288) = (   0.4583333   0.9583333   0.0000000), wk =   0.0034722
        k(  289) = (   0.5000000   0.0000000   0.0000000), wk =   0.0034722
        k(  290) = (   0.5000000   0.0416667   0.0000000), wk =   0.0034722
        k(  291) = (   0.5000000   0.0833333   0.0000000), wk =   0.0034722
        k(  292) = (   0.5000000   0.1250000   0.0000000), wk =   0.0034722
        k(  293) = (   0.5000000   0.1666667   0.0000000), wk =   0.0034722
        k(  294) = (   0.5000000   0.2083333   0.0000000), wk =   0.0034722
        k(  295) = (   0.5000000   0.2500000   0.0000000), wk =   0.0034722
        k(  296) = (   0.5000000   0.2916667   0.0000000), wk =   0.0034722
        k(  297) = (   0.5000000   0.3333333   0.0000000), wk =   0.0034722
        k(  298) = (   0.5000000   0.3750000   0.0000000), wk =   0.0034722
        k(  299) = (   0.5000000   0.4166667   0.0000000), wk =   0.0034722
        k(  300) = (   0.5000000   0.4583333   0.0000000), wk =   0.0034722
        k(  301) = (   0.5000000   0.5000000   0.0000000), wk =   0.0034722
        k(  302) = (   0.5000000   0.5416667   0.0000000), wk =   0.0034722
        k(  303) = (   0.5000000   0.5833333   0.0000000), wk =   0.0034722
        k(  304) = (   0.5000000   0.6250000   0.0000000), wk =   0.0034722
        k(  305) = (   0.5000000   0.6666667   0.0000000), wk =   0.0034722
        k(  306) = (   0.5000000   0.7083333   0.0000000), wk =   0.0034722
        k(  307) = (   0.5000000   0.7500000   0.0000000), wk =   0.0034722
        k(  308) = (   0.5000000   0.7916667   0.0000000), wk =   0.0034722
        k(  309) = (   0.5000000   0.8333333   0.0000000), wk =   0.0034722
        k(  310) = (   0.5000000   0.8750000   0.0000000), wk =   0.0034722
        k(  311) = (   0.5000000   0.9166667   0.0000000), wk =   0.0034722
        k(  312) = (   0.5000000   0.9583333   0.0000000), wk =   0.0034722
        k(  313) = (   0.5416667   0.0000000   0.0000000), wk =   0.0034722
        k(  314) = (   0.5416667   0.0416667   0.0000000), wk =   0.0034722
        k(  315) = (   0.5416667   0.0833333   0.0000000), wk =   0.0034722
        k(  316) = (   0.5416667   0.1250000   0.0000000), wk =   0.0034722
        k(  317) = (   0.5416667   0.1666667   0.0000000), wk =   0.0034722
        k(  318) = (   0.5416667   0.2083333   0.0000000), wk =   0.0034722
        k(  319) = (   0.5416667   0.2500000   0.0000000), wk =   0.0034722
        k(  320) = (   0.5416667   0.2916667   0.0000000), wk =   0.0034722
        k(  321) = (   0.5416667   0.3333333   0.0000000), wk =   0.0034722
        k(  322) = (   0.5416667   0.3750000   0.0000000), wk =   0.0034722
        k(  323) = (   0.5416667   0.4166667   0.0000000), wk =   0.0034722
        k(  324) = (   0.5416667   0.4583333   0.0000000), wk =   0.0034722
        k(  325) = (   0.5416667   0.5000000   0.0000000), wk =   0.0034722
        k(  326) = (   0.5416667   0.5416667   0.0000000), wk =   0.0034722
        k(  327) = (   0.5416667   0.5833333   0.0000000), wk =   0.0034722
        k(  328) = (   0.5416667   0.6250000   0.0000000), wk =   0.0034722
        k(  329) = (   0.5416667   0.6666667   0.0000000), wk =   0.0034722
        k(  330) = (   0.5416667   0.7083333   0.0000000), wk =   0.0034722
        k(  331) = (   0.5416667   0.7500000   0.0000000), wk =   0.0034722
        k(  332) = (   0.5416667   0.7916667   0.0000000), wk =   0.0034722
        k(  333) = (   0.5416667   0.8333333   0.0000000), wk =   0.0034722
        k(  334) = (   0.5416667   0.8750000   0.0000000), wk =   0.0034722
        k(  335) = (   0.5416667   0.9166667   0.0000000), wk =   0.0034722
        k(  336) = (   0.5416667   0.9583333   0.0000000), wk =   0.0034722
        k(  337) = (   0.5833333  -0.0000000   0.0000000), wk =   0.0034722
        k(  338) = (   0.5833333   0.0416667   0.0000000), wk =   0.0034722
        k(  339) = (   0.5833333   0.0833333   0.0000000), wk =   0.0034722
        k(  340) = (   0.5833333   0.1250000   0.0000000), wk =   0.0034722
        k(  341) = (   0.5833333   0.1666667   0.0000000), wk =   0.0034722
        k(  342) = (   0.5833333   0.2083333   0.0000000), wk =   0.0034722
        k(  343) = (   0.5833333   0.2500000   0.0000000), wk =   0.0034722
        k(  344) = (   0.5833333   0.2916667   0.0000000), wk =   0.0034722
        k(  345) = (   0.5833333   0.3333333   0.0000000), wk =   0.0034722
        k(  346) = (   0.5833333   0.3750000   0.0000000), wk =   0.0034722
        k(  347) = (   0.5833333   0.4166667   0.0000000), wk =   0.0034722
        k(  348) = (   0.5833333   0.4583333   0.0000000), wk =   0.0034722
        k(  349) = (   0.5833333   0.5000000   0.0000000), wk =   0.0034722
        k(  350) = (   0.5833333   0.5416667   0.0000000), wk =   0.0034722
        k(  351) = (   0.5833333   0.5833333   0.0000000), wk =   0.0034722
        k(  352) = (   0.5833333   0.6250000   0.0000000), wk =   0.0034722
[...]

   -18.9939 -12.5888  -8.8132  -5.7535   1.0698   5.4845   6.9751   7.2152
     7.6474   8.4382   8.9123  10.2660  10.6866  11.3567  11.7640  12.8946
    13.0360  13.6636  13.7439  14.2854  14.8483  15.3802  16.3269  16.3521
    17.3956  17.7071  18.7797  18.9747  20.3764  20.7021  21.0434  22.1985
    22.2802  22.4080  22.7573  23.5124  23.5643  24.0060  24.0341  25.1533
    25.6099  25.9849  26.9341  27.9997  28.3829  28.5575  29.0682  29.2261
    29.5933  30.1763

          k = 0.9167 1.2990 0.0000 (  7250 PWs)   bands (ev):

   -19.3624 -11.9618  -8.6327  -6.2959   1.7883   4.7846   6.2574   6.4688
     6.8343   7.4588   7.9448   9.4277  10.0107  11.7543  11.8122  13.2754
    13.3365  14.3861  14.7541  14.7580  15.6534  15.6987  16.4776  16.7879
    17.6299  17.9912  18.9259  19.8910  20.7975  21.1852  21.3974  22.3562
    22.4097  22.5906  22.7206  23.7974  23.8407  24.6387  24.8106  25.8325
    25.8719  26.3213  26.8107  28.0423  28.4173  28.7744  29.6229  29.6326
    30.4262  30.4865

          k = 0.9167 1.3472 0.0000 (  7257 PWs)   bands (ev):

   -19.7704 -11.2049  -8.3858  -6.8795   2.5549   4.0027   5.4164   5.5952
     6.5171   6.5857   7.2268   8.6042   9.1364  11.2958  11.4844  12.8314
    13.6575  14.4654  15.5720  15.7458  16.2871  16.5516  16.9913  17.5724
    18.0616  19.1836  20.0188  20.0740  21.1420  21.3536  21.7230  22.9243
    23.0057  23.1609  23.3209  24.1602  24.2273  25.0696  25.3378  26.1947
    26.4861  26.9746  27.1391  27.6801  28.9227  29.1810  30.0765  30.2785
    30.8876  30.9435

          k = 0.9167 1.3953 0.0000 (  7255 PWs)   bands (ev):

   -20.1768 -10.3735  -8.0788  -7.4497   3.1773   3.2585   4.7734   4.7756
     5.8624   5.9425   6.9768   7.8760   8.3538  10.6642  10.7830  12.1017
    13.7742  13.9147  15.6835  15.7676  17.4922  18.0138  18.1837  18.8950
    19.5207  19.5851  20.4756  20.7692  21.7006  22.1443  22.3476  23.4270
    23.5465  24.1357  24.2059  24.7241  24.7984  25.5616  25.5754  26.3212
    26.7120  27.1855  28.1375  29.0439  29.5185  29.7018  30.4889  30.6348
    31.2394  31.4475

          k = 0.9167 1.4434 0.0000 (  7254 PWs)   bands (ev):

   -20.5560  -9.5135  -7.9754  -7.7215   2.5904   3.2812   4.0596   4.4660
     5.2890   5.4429   6.8985   7.2910   7.7074  10.0403  10.0807  11.2679
    13.1403  13.5210  15.2999  16.1634  18.6397  18.8625  19.8377  19.9527
    20.1222  20.8130  21.3862  22.0212  22.3774  23.3581  23.4889  24.0325
    24.1417  24.5718  24.7145  25.2999  25.3284  25.7272  26.6969  27.1103
    27.3801  27.7826  28.7444  30.0403  30.2677  30.6935  31.0463  31.3341
    31.6028  31.6446

          k = 0.9167 1.4915 0.0000 (  7266 PWs)   bands (ev):

   -20.8926  -8.6682  -8.4384  -7.3282   2.0123   2.9228   3.4519   4.1479
     4.7047   5.4775   6.7069   6.9442   7.3096   9.3499   9.5997  10.4593
    12.3646  13.1383  14.7646  16.7172  18.6820  19.1360  20.6972  21.2973
    22.0761  22.3873  22.6187  23.0898  23.4207  24.0313  24.4674  24.6885
    24.8746  24.9211  25.9193  25.9436  26.0380  26.3799  27.5033  28.3369
    28.3856  29.0117  29.2258  30.1145  30.8229  31.0260  31.7763  31.8975
    32.3917  32.7342

          k = 0.9167 1.5396 0.0000 (  7269 PWs)   bands (ev):

   -21.1770  -8.8274  -7.8823  -6.9207   1.5307   2.5099   2.9538   3.7466
     4.2167   5.4654   6.3353   6.9500   7.1795   8.7664   9.2559   9.7180
    11.6692  12.7822  14.2807  16.8807  18.7137  19.3190  21.6959  22.0773
    23.0932  23.3659  24.1436  24.3462  24.5065  24.9068  25.6115  25.6578
    25.8175  25.8586  26.8105  27.0146  27.2658  27.9942  28.0289  28.8885
    29.2226  29.9831  30.3593  30.8741  30.9950  31.8276  32.1636  32.7183
    33.0534  33.6116

          k = 0.9167 1.5877 0.0000 (  7269 PWs)   bands (ev):

   -21.4030  -9.1356  -7.2009  -6.5325   1.1495   2.1620   2.5658   3.3995
     3.8325   5.2805   5.9748   7.1080   7.1284   8.3330   9.0617   9.0754
    11.1037  12.5030  13.8834  16.7668  18.3440  20.3405  21.7065  22.3931
    23.4902  23.7220  25.1174  25.8897  26.5530  26.5801  26.6295  26.6642
    26.8556  27.7696  27.8192  27.9112  28.0331  29.1365  29.9005  29.9453
    30.1247  30.2330  30.4502  31.8493  32.5703  32.8979  33.2252  33.2468
    33.3477  33.8821

          k = 0.9167 1.6358 0.0000 (  7265 PWs)   bands (ev):

   -21.5668  -9.3584  -6.6630  -6.2131   0.8727   1.9060   2.2883   3.1429
     3.5558   5.0873   5.7032   7.0458   7.2463   8.0202   8.5450   9.0434
    10.6979  12.3136  13.5891  16.6202  18.0658  21.1132  21.4673  22.9110
    23.5036  23.9346  26.3638  26.5333  27.5640  27.6665  27.7412  28.4817
    28.9038  28.9125  28.9804  29.2768  29.7447  30.1947  30.3260  30.8080
    31.0649  31.3515  31.5669  32.4160  32.5550  32.9588  33.0140  33.6641
    33.7234  34.0671

          k = 0.9583 0.5533 0.0000 (  7265 PWs)   bands (ev):

   -21.7656  -9.6285  -5.8965  -5.8231   0.5331   1.5937   1.9547   2.8294
     3.2211   4.8207   5.3729   7.1031   7.2780   7.2805   8.0552   9.1594
    10.2162  12.1144  13.2229  16.4144  17.7145  21.0288  21.3996  23.2306
    25.0728  25.2274  26.3142  28.4828  28.9857  29.3284  29.7734  30.5752
    30.8464  31.2369  31.2419  31.5638  32.2264  32.4691  32.5686  32.6482
    32.6595  32.6598  33.1834  33.5341  33.8036  33.8321  33.9210  33.9246
    34.3095  34.8588

          k = 0.9583 0.6014 0.0000 (  7265 PWs)   bands (ev):

   -21.7656  -9.6285  -5.8965  -5.8231   0.5331   1.5937   1.9547   2.8294
     3.2211   4.8207   5.3729   7.1031   7.2780   7.2805   8.0552   9.1594
    10.2162  12.1144  13.2229  16.4144  17.7145  21.0288  21.3996  23.2306
    25.0728  25.2274  26.3142  28.4828  28.9857  29.3284  29.7734  30.5752
    30.8464  31.2369  31.2419  31.5638  32.2264  32.4691  32.5686  32.6482
    32.6595  32.6598  33.1834  33.5341  33.8036  33.8321  33.9210  33.9246
    34.3095  34.8588

          k = 0.9583 0.6495 0.0000 (  7279 PWs)   bands (ev):

   -21.6990  -9.5382  -6.1646  -5.9593   0.6477   1.6983   2.0660   2.9345
     3.3333   4.9126   5.4850   7.0787   7.2853   7.5462   8.2119   9.1018
    10.3802  12.1759  13.3470  16.4849  17.8341  21.1902  21.3724  23.3213
    24.0072  24.7030  26.3711  28.3396  28.5110  28.8947  29.5604  29.8048
    30.0120  30.0418  30.0646  30.1997  31.1699  31.2556  31.2751  31.4467
    32.1323  32.4256  32.5678  33.1670  33.4193  33.6730  33.7895  33.9783
    34.0489  34.0738

          k = 0.9583 0.6976 0.0000 (  7265 PWs)   bands (ev):

   -21.5668  -9.3584  -6.6630  -6.2131   0.8727   1.9060   2.2883   3.1429
     3.5558   5.0873   5.7032   7.0458   7.2463   8.0202   8.5450   9.0434
    10.6979  12.3136  13.5891  16.6202  18.0658  21.1132  21.4673  22.9110
    23.5036  23.9346  26.3638  26.5333  27.5640  27.6665  27.7412  28.4817
    28.9038  28.9125  28.9804  29.2768  29.7447  30.1947  30.3260  30.8080
    31.0649  31.3515  31.5669  32.4160  32.5550  32.9588  33.0140  33.6641
    33.7234  34.0671

          k = 0.9583 0.7457 0.0000 (  7274 PWs)   bands (ev):

   -21.3705  -9.0914  -7.3418  -6.5456   1.2028   2.2125   2.6211   3.4500
     3.8860   5.3136   6.0090   7.0128   7.0977   8.6145   9.0924   9.0973
    11.1500  12.5426  13.9381  16.7958  18.3970  20.2792  21.6972  22.4431
    23.1635  23.7482  24.4519  25.3130  25.3939  26.4014  26.5156  26.9239
    27.0124  27.9264  27.9518  28.7590  28.8879  29.0211  29.2201  29.7554
    30.0411  30.5728  31.4710  31.5599  31.6514  31.9085  32.0503  32.1264
    32.6198  33.2367

          k = 0.9583 0.7939 0.0000 (  7253 PWs)   bands (ev):

   -21.1134  -8.7405  -8.1441  -6.9175   1.6336   2.6054   3.0640   3.8407
     4.3205   5.4856   6.3413   6.9131   7.0499   9.2274   9.3242   9.9057
    11.7112  12.8653  14.3784  16.9198  18.8064  19.2978  21.2470  21.9345
    22.7065  22.9083  23.3101  23.4155  24.1941  24.6125  24.6374  25.9468
    26.2700  26.8606  26.9487  27.0916  27.6009  28.3348  28.3554  29.4912
    29.5182  29.9906  30.0567  30.4950  30.8217  30.8830  31.1230  31.2810
    32.2776  32.3532

          k = 0.9583 0.8420 0.0000 (  7251 PWs)   bands (ev):

   -20.8001  -9.0173  -8.3113  -7.2958   2.1613   3.0401   3.6166   4.2542
     4.8525   5.4307   6.5362   7.0069   7.3381   9.7287   9.8674  10.8889
    12.3508  13.2644  14.8862  16.7406  18.7375  19.1384  19.9311  20.8438
    20.9562  21.4639  22.1555  22.3359  23.3585  23.4255  24.4929  24.8351
    25.0055  25.5887  26.0535  26.3055  26.8655  27.5482  27.6061  27.8695
    28.6785  29.0103  29.4793  30.0004  30.1634  30.3185  30.8464  31.0306
    31.5362  31.7468

          k = 0.9583 0.8901 0.0000 (  7256 PWs)   bands (ev):

   -20.4384  -9.9150  -7.8125  -7.6549   2.7806   3.2996   4.2777   4.5230
     5.4615   5.5180   6.6002   7.4612   7.9039  10.2682  10.5575  11.9216
    13.0384  13.6819  15.4078  16.1861  18.0460  18.5358  18.9756  19.3199
    19.9246  20.2096  20.4794  21.0999  22.4720  22.5445  23.5860  24.1129
    24.8263  25.3212  25.5025  25.6750  25.8474  26.2816  26.6913  26.9320
    28.0014  28.3216  29.1448  29.2812  29.5481  29.6076  30.0252  30.3055
    30.7769  30.9380

          k = 0.9583 0.9382 0.0000 (  7267 PWs)   bands (ev):

   -20.0403 -10.7955  -7.9762  -7.2584   2.9396   3.4800   4.9611   5.0441
     6.0416   6.0925   6.7749   8.1216   8.6283  10.9054  11.2785  12.7717
    13.7765  13.9295  15.6673  15.7198  16.8094  17.2550  17.2722  18.3119
    18.6177  19.5417  20.1499  20.4768  21.1093  21.3595  23.2184  23.4379
    23.8709  24.8479  24.9742  25.2334  25.2448  26.0658  26.2887  26.5195
    27.1826  27.6738  28.2191  28.3566  28.8776  28.9823  29.1574  29.8328
    30.3637  30.5000

          k = 0.9583 0.9863 0.0000 (  7262 PWs)   bands (ev):

   -19.6257 -11.6177  -8.2462  -6.6725   2.2039   4.2295   5.7107   5.8900
     6.3705   6.8959   7.3794   8.9113   9.4644  11.5767  11.8466  13.0513
    13.6671  14.5847  15.1631  15.2645  15.6211  15.9977  16.5948  17.1475
    17.5624  18.7126  19.3127  19.8858  20.7063  21.4076  22.3178  22.3446
    23.1547  24.4359  24.5616  24.8712  24.9935  25.6454  25.8897  26.3527
    26.5201  27.1883  27.6706  27.7503  28.4150  28.5258  28.6899  29.3168
    29.8990  30.0561

          k = 0.9583 1.0344 0.0000 (  7268 PWs)   bands (ev):

   -19.2271 -12.3337  -8.4557  -6.0961   1.4247   4.9378   6.4852   6.6202
     7.0026   7.8307   8.2846   9.7855  10.3607  11.5073  11.9909  13.1302
    13.3657  13.6350  14.1430  14.5667  15.3110  15.5667  16.1728  16.6175
    17.3755  17.8652  18.6002  19.4073  20.3630  20.7644  21.9579  22.3304
    22.9018  23.8396  24.1859  24.3320  24.3520  25.3701  25.3760  25.6775
    26.6286  26.9005  27.3474  27.8542  28.1685  28.2503  28.5555  28.7217
    29.5069  29.5315

          k = 0.9583 1.0825 0.0000 (  7252 PWs)   bands (ev):

   -18.8962 -12.8815  -8.5984  -5.6016   0.7671   5.4064   7.0375   7.6328
     8.0729   8.8620   9.3145  10.2845  10.5830  11.4868  11.5539  12.0425
    12.5983  13.1377  13.5099  14.3360  14.6293  15.2619  16.0986  16.4627
    17.1880  17.8210  18.6659  18.7735  19.9922  20.0416  21.9377  22.4797
    22.7322  23.3523  23.7099  24.0414  24.0698  25.1265  25.1285  25.4466
    26.3732  26.6385  27.2116  27.6192  27.9534  28.0022  28.1973  28.4886
    29.2632  29.3057

          k = 0.9583 1.1306 0.0000 (  7256 PWs)   bands (ev):

   -18.7018 -13.1858  -8.6708  -5.3009   0.3778   5.5783   7.8861   8.6683
     9.0952   9.3169   9.7780  10.2838  10.5165  10.6311  11.2571  11.7911
    12.0105  12.6703  13.1549  13.8852  14.4656  15.4270  15.8641  16.6408
    17.0676  17.3860  18.5181  19.0012  19.7536  20.2957  21.4036  21.8497
    22.5655  23.6812  23.8214  23.9941  24.0096  24.9235  25.1720  25.5117
    25.7374  26.4991  26.9625  27.1402  27.6654  27.8709  27.9771  28.7199
    29.1978  29.2822

          k = 0.9583 1.1788 0.0000 (  7256 PWs)   bands (ev):

   -18.7018 -13.1858  -8.6708  -5.3009   0.3778   5.5783   7.8861   8.6683
     9.0952   9.3169   9.7780  10.2838  10.5165  10.6311  11.2571  11.7911
    12.0105  12.6703  13.1549  13.8852  14.4656  15.4270  15.8641  16.6408
    17.0676  17.3860  18.5181  19.0012  19.7536  20.2957  21.4036  21.8497
    22.5655  23.6812  23.8214  23.9941  24.0096  24.9235  25.1720  25.5117
    25.7374  26.4991  26.9625  27.1402  27.6654  27.8709  27.9771  28.7199
    29.1978  29.2822

          k = 0.9583 1.2269 0.0000 (  7252 PWs)   bands (ev):

   -18.8962 -12.8815  -8.5984  -5.6016   0.7671   5.4064   7.0375   7.6328
     8.0729   8.8620   9.3145  10.2845  10.5830  11.4868  11.5539  12.0425
    12.5983  13.1377  13.5099  14.3360  14.6293  15.2619  16.0986  16.4627
    17.1880  17.8210  18.6659  18.7735  19.9922  20.0416  21.9377  22.4797
    22.7322  23.3523  23.7099  24.0414  24.0698  25.1265  25.1285  25.4466
    26.3732  26.6385  27.2116  27.6192  27.9534  28.0022  28.1973  28.4886
    29.2632  29.3057

          k = 0.9583 1.2750 0.0000 (  7268 PWs)   bands (ev):

   -19.2271 -12.3337  -8.4557  -6.0961   1.4247   4.9378   6.4852   6.6202
     7.0026   7.8307   8.2846   9.7855  10.3607  11.5073  11.9909  13.1302
    13.3657  13.6350  14.1430  14.5667  15.3110  15.5667  16.1728  16.6175
    17.3755  17.8652  18.6002  19.4073  20.3630  20.7644  21.9579  22.3304
    22.9018  23.8396  24.1859  24.3320  24.3520  25.3701  25.3760  25.6775
    26.6286  26.9005  27.3474  27.8542  28.1685  28.2503  28.5555  28.7217
    29.5069  29.5315

          k = 0.9583 1.3231 0.0000 (  7262 PWs)   bands (ev):

   -19.6257 -11.6177  -8.2462  -6.6725   2.2039   4.2295   5.7107   5.8900
     6.3705   6.8959   7.3794   8.9113   9.4644  11.5767  11.8466  13.0513
    13.6671  14.5847  15.1631  15.2645  15.6211  15.9977  16.5948  17.1475
    17.5624  18.7126  19.3127  19.8858  20.7063  21.4076  22.3178  22.3446
    23.1547  24.4359  24.5616  24.8712  24.9935  25.6454  25.8897  26.3527
    26.5201  27.1883  27.6706  27.7503  28.4150  28.5258  28.6899  29.3168
    29.8990  30.0561

          k = 0.9583 1.3712 0.0000 (  7267 PWs)   bands (ev):

   -20.0403 -10.7955  -7.9762  -7.2584   2.9396   3.4800   4.9611   5.0441
     6.0416   6.0925   6.7749   8.1216   8.6283  10.9054  11.2785  12.7717
    13.7765  13.9295  15.6673  15.7198  16.8094  17.2550  17.2722  18.3119
    18.6177  19.5417  20.1499  20.4768  21.1093  21.3595  23.2184  23.4379
    23.8709  24.8479  24.9742  25.2334  25.2448  26.0658  26.2887  26.5195
    27.1826  27.6738  28.2191  28.3566  28.8776  28.9823  29.1574  29.8328
    30.3637  30.5000

          k = 0.9583 1.4193 0.0000 (  7256 PWs)   bands (ev):

   -20.4384  -9.9150  -7.8125  -7.6549   2.7806   3.2996   4.2777   4.5230
     5.4615   5.5180   6.6002   7.4612   7.9039  10.2682  10.5575  11.9216
    13.0384  13.6819  15.4078  16.1861  18.0460  18.5358  18.9756  19.3199
    19.9246  20.2096  20.4794  21.0999  22.4720  22.5445  23.5860  24.1129
    24.8263  25.3212  25.5025  25.6750  25.8474  26.2816  26.6913  26.9320
    28.0014  28.3216  29.1448  29.2812  29.5481  29.6076  30.0252  30.3055
    30.7769  30.9380

          k = 0.9583 1.4674 0.0000 (  7251 PWs)   bands (ev):

   -20.8001  -9.0173  -8.3113  -7.2958   2.1613   3.0401   3.6166   4.2542
     4.8525   5.4307   6.5362   7.0069   7.3381   9.7287   9.8674  10.8889
    12.3508  13.2644  14.8862  16.7406  18.7375  19.1384  19.9311  20.8438
    20.9562  21.4639  22.1555  22.3359  23.3585  23.4255  24.4929  24.8351
    25.0055  25.5887  26.0535  26.3055  26.8655  27.5482  27.6061  27.8695
    28.6785  29.0103  29.4793  30.0004  30.1634  30.3185  30.8464  31.0306
    31.5362  31.7468

          k = 0.9583 1.5155 0.0000 (  7253 PWs)   bands (ev):

   -21.1134  -8.7405  -8.1441  -6.9175   1.6336   2.6054   3.0640   3.8407
     4.3205   5.4856   6.3413   6.9131   7.0499   9.2274   9.3242   9.9057
    11.7112  12.8653  14.3784  16.9198  18.8064  19.2978  21.2470  21.9345
    22.7065  22.9083  23.3101  23.4155  24.1941  24.6125  24.6374  25.9468
    26.2700  26.8606  26.9487  27.0916  27.6009  28.3348  28.3554  29.4912
    29.5182  29.9906  30.0567  30.4950  30.8217  30.8830  31.1230  31.2810
    32.2776  32.3532

          k = 0.9583 1.5637 0.0000 (  7274 PWs)   bands (ev):

   -21.3705  -9.0914  -7.3418  -6.5456   1.2028   2.2125   2.6211   3.4500
     3.8860   5.3136   6.0090   7.0128   7.0977   8.6145   9.0924   9.0973
    11.1500  12.5426  13.9381  16.7958  18.3970  20.2792  21.6972  22.4431
    23.1635  23.7482  24.4519  25.3130  25.3939  26.4014  26.5156  26.9239
    27.0124  27.9264  27.9518  28.7590  28.8879  29.0211  29.2201  29.7554
    30.0411  30.5728  31.4710  31.5599  31.6514  31.9085  32.0503  32.1264
    32.6198  33.2367

          k = 0.9583 1.6118 0.0000 (  7265 PWs)   bands (ev):

   -21.5668  -9.3584  -6.6630  -6.2131   0.8727   1.9060   2.2883   3.1429
     3.5558   5.0873   5.7032   7.0458   7.2463   8.0202   8.5450   9.0434
    10.6979  12.3136  13.5891  16.6202  18.0658  21.1132  21.4673  22.9110
    23.5036  23.9346  26.3638  26.5333  27.5640  27.6665  27.7412  28.4817
    28.9038  28.9125  28.9804  29.2768  29.7447  30.1947  30.3260  30.8080
    31.0649  31.3515  31.5669  32.4160  32.5550  32.9588  33.0140  33.6641
    33.7234  34.0671

          k = 0.9583 1.6599 0.0000 (  7279 PWs)   bands (ev):

   -21.6990  -9.5382  -6.1646  -5.9593   0.6477   1.6983   2.0660   2.9345
     3.3333   4.9126   5.4850   7.0787   7.2853   7.5462   8.2119   9.1018
    10.3802  12.1759  13.3470  16.4849  17.8341  21.1902  21.3724  23.3213
    24.0072  24.7030  26.3711  28.3396  28.5110  28.8947  29.5604  29.8048
    30.0120  30.0418  30.0646  30.1997  31.1699  31.2556  31.2751  31.4467
    32.1323  32.4256  32.5678  33.1670  33.4193  33.6730  33.7895  33.9783
    34.0489  34.0738

     Writing all to output data dir ./bn.save/

     init_run     :      0.05s CPU      0.07s WALL (       1 calls)
     electrons    :     51.21s CPU     51.77s WALL (       1 calls)

     Called by init_run:
     wfcinit      :      0.00s CPU      0.01s WALL (       1 calls)
     wfcinit:atom :      0.00s CPU      0.01s WALL (      72 calls)
     wfcinit:wfcr :      1.56s CPU      1.59s WALL (      72 calls)
     potinit      :      0.01s CPU      0.01s WALL (       1 calls)
     hinit0       :      0.03s CPU      0.03s WALL (       1 calls)

     Called by electrons:
     c_bands      :     51.19s CPU     51.75s WALL (       1 calls)
     v_of_rho     :      0.00s CPU      0.00s WALL (       1 calls)
     v_h          :      0.00s CPU      0.00s WALL (       1 calls)
     v_xc         :      0.00s CPU      0.00s WALL (       1 calls)

     Called by c_bands:
     init_us_2    :      0.00s CPU      0.01s WALL (      72 calls)
     init_us_2:cp :      0.00s CPU      0.01s WALL (      72 calls)
     cegterg      :     46.78s CPU     47.23s WALL (      91 calls)

     Called by sum_band:

     Called by *egterg:
     cdiaghg      :     17.41s CPU     17.46s WALL (    1638 calls)
     cegterg:over :      6.87s CPU      7.02s WALL (    1566 calls)
     cegterg:upda :      3.91s CPU      3.91s WALL (    1566 calls)
     cegterg:last :      2.44s CPU      2.44s WALL (     328 calls)
     h_psi        :     16.22s CPU     16.48s WALL (    1729 calls)
     g_psi        :      0.08s CPU      0.08s WALL (    1566 calls)

     Called by h_psi:
     h_psi:calbec :      0.51s CPU      0.51s WALL (    1729 calls)
     vloc_psi     :     15.31s CPU     15.56s WALL (    1729 calls)
     add_vuspsi   :      0.37s CPU      0.37s WALL (    1729 calls)

     General routines
     calbec       :      0.50s CPU      0.51s WALL (    1729 calls)
     fft          :      0.00s CPU      0.00s WALL (       3 calls)
     fftw         :     14.66s CPU     14.90s WALL (  103142 calls)
     davcio       :      0.04s CPU      0.05s WALL (     144 calls)

     Parallel routines

     PWSCF        :     59.10s CPU   1m 1.56s WALL


   This run was terminated on:   6:56:19  24Jan2025            

=------------------------------------------------------------------------------=
   JOB DONE.
=------------------------------------------------------------------------------=
