
     Program PWSCF v.7.2 starts on 25Jan2025 at 17: 7: 1 

     This program is part of the open-source Quantum ESPRESSO suite
     for quantum simulation of materials; please cite
         "P. Giannozzi et al., J. Phys.:Condens. Matter 21 395502 (2009);
         "P. Giannozzi et al., J. Phys.:Condens. Matter 29 465901 (2017);
         "P. Giannozzi et al., J. Chem. Phys. 152 154105 (2020);
          URL http://www.quantum-espresso.org", 
     in publications or presentations arising from this work. More details at
     http://www.quantum-espresso.org/quote

     Parallel version (MPI), running on    64 processors

     MPI processes distributed on     4 nodes
     461784 MiB available memory on the printing compute node when the environment starts

     Reading input from bands.in

     Current dimensions of program PWSCF are:
     Max number of different atomic species (ntypx) = 10
     Max number of k-points (npk) =  40000
     Max angular momentum in pseudopotentials (lmaxx) =  4

     Atomic positions and unit cell read from directory:
     ./bn.save/
     Atomic positions from file used, from input discarded

     Message from routine setup:
     using ibrav=0 with symmetry is DISCOURAGED, use correct ibrav instead

     R & G space division:  proc/nbgrp/npool/nimage =      64
     Subspace diagonalization in iterative solution of the eigenvalue problem:
     a serial algorithm will be used


     Parallelization info
     --------------------
     sticks:   dense  smooth     PW     G-vecs:    dense   smooth      PW
     Min           6       6      1                  878      878     111
     Max           7       7      2                  927      927     162
     Sum         433     433    127                58173    58173    9681

     Using Slab Decomposition



     bravais-lattice index     =            0
     lattice parameter (alat)  =       4.7319  a.u.
     unit-cell volume          =     732.8682 (a.u.)^3
     number of atoms/cell      =            2
     number of atomic types    =            2
     number of electrons       =         8.00
     number of Kohn-Sham states=           20
     kinetic-energy cutoff     =      70.0000  Ry
     charge density cutoff     =     280.0000  Ry
     Exchange-correlation= PZ
                           (   1   1   0   0   0   0   0)

     celldm(1)=   4.731874  celldm(2)=   0.000000  celldm(3)=   0.000000
     celldm(4)=   0.000000  celldm(5)=   0.000000  celldm(6)=   0.000000

     crystal axes: (cart. coord. in units of alat)
               a(1) = (   1.000000   0.000000   0.000000 )  
               a(2) = (  -0.500000   0.866025   0.000000 )  
               a(3) = (   0.000000   0.000000   7.987220 )  

     reciprocal axes: (cart. coord. in units 2 pi/alat)
               b(1) = (  1.000000  0.577350 -0.000000 )  
               b(2) = (  0.000000  1.154701  0.000000 )  
               b(3) = (  0.000000 -0.000000  0.125200 )  


     PseudoPot. # 1 for B  read from file:
     ./B_LDA.upf
     MD5 check sum: 65253fcade13fd046065f55d2370c246
     Pseudo is Norm-conserving, Zval =  3.0
     Generated using ONCVPSP code by D. R. Hamann
     Using radial grid of 1498 points,  4 beta functions with: 
                l(1) =   0
                l(2) =   0
                l(3) =   1
                l(4) =   1

     PseudoPot. # 2 for N  read from file:
     ./N_LDA.upf
     MD5 check sum: 7658f7615a25ff704775af13f841a702
     Pseudo is Norm-conserving, Zval =  5.0
     Generated using ONCVPSP code by D. R. Hamann
     Using radial grid of 1058 points,  4 beta functions with: 
                l(1) =   0
                l(2) =   0
                l(3) =   1
                l(4) =   1

     atomic species   valence    mass     pseudopotential
        B              3.00    11.00000     B ( 1.00)
        N              5.00    14.00000     N ( 1.00)

     12 Sym. Ops. (no inversion) found


                                    s                        frac. trans.

      isym =  1     identity                                     

 cryst.   s( 1) = (     1          0          0      )
                  (     0          1          0      )
                  (     0          0          1      )

 cart.    s( 1) = (  1.0000000  0.0000000  0.0000000 )
                  (  0.0000000  1.0000000  0.0000000 )
                  (  0.0000000  0.0000000  1.0000000 )


      isym =  2     180 deg rotation - cart. axis [0,1,0]        

 cryst.   s( 2) = (    -1          0          0      )
                  (     1          1          0      )
                  (     0          0         -1      )

 cart.    s( 2) = ( -1.0000000  0.0000000  0.0000000 )
                  (  0.0000000  1.0000000  0.0000000 )
                  (  0.0000000  0.0000000 -1.0000000 )


      isym =  3     120 deg rotation - cryst. axis [0,0,1]       

 cryst.   s( 3) = (     0          1          0      )
                  (    -1         -1          0      )
                  (     0          0          1      )

 cart.    s( 3) = ( -0.5000000 -0.8660254  0.0000000 )
                  (  0.8660254 -0.5000000  0.0000000 )
                  (  0.0000000  0.0000000  1.0000000 )


      isym =  4     120 deg rotation - cryst. axis [0,0,-1]      

 cryst.   s( 4) = (    -1         -1          0      )
                  (     1          0          0      )
                  (     0          0          1      )

 cart.    s( 4) = ( -0.5000000  0.8660254  0.0000000 )
                  ( -0.8660254 -0.5000000  0.0000000 )
                  (  0.0000000  0.0000000  1.0000000 )


      isym =  5     180 deg rotation - cryst. axis [1,-1,0]      

 cryst.   s( 5) = (     0         -1          0      )
                  (    -1          0          0      )
                  (     0          0         -1      )

 cart.    s( 5) = (  0.5000000 -0.8660254  0.0000000 )
                  ( -0.8660254 -0.5000000  0.0000000 )
                  (  0.0000000  0.0000000 -1.0000000 )


      isym =  6     180 deg rotation - cryst. axis [2,1,0]       

 cryst.   s( 6) = (     1          1          0      )
                  (     0         -1          0      )
                  (     0          0         -1      )

 cart.    s( 6) = (  0.5000000  0.8660254  0.0000000 )
                  (  0.8660254 -0.5000000  0.0000000 )
                  (  0.0000000  0.0000000 -1.0000000 )


      isym =  7     inv. 180 deg rotation - cart. axis [0,0,1]   

 cryst.   s( 7) = (     1          0          0      )
                  (     0          1          0      )
                  (     0          0         -1      )

 cart.    s( 7) = (  1.0000000  0.0000000  0.0000000 )
                  (  0.0000000  1.0000000  0.0000000 )
                  (  0.0000000  0.0000000 -1.0000000 )


      isym =  8     inv. 180 deg rotation - cart. axis [1,0,0]   

 cryst.   s( 8) = (    -1          0          0      )
                  (     1          1          0      )
                  (     0          0          1      )

 cart.    s( 8) = ( -1.0000000  0.0000000  0.0000000 )
                  (  0.0000000  1.0000000  0.0000000 )
                  (  0.0000000  0.0000000  1.0000000 )


      isym =  9     inv.  60 deg rotation - cryst. axis [0,0,1]  

 cryst.   s( 9) = (    -1         -1          0      )
                  (     1          0          0      )
                  (     0          0         -1      )

 cart.    s( 9) = ( -0.5000000  0.8660254  0.0000000 )
                  ( -0.8660254 -0.5000000  0.0000000 )
                  (  0.0000000  0.0000000 -1.0000000 )


      isym = 10     inv.  60 deg rotation - cryst. axis [0,0,-1] 

 cryst.   s(10) = (     0          1          0      )
                  (    -1         -1          0      )
                  (     0          0         -1      )

 cart.    s(10) = ( -0.5000000 -0.8660254  0.0000000 )
                  (  0.8660254 -0.5000000  0.0000000 )
                  (  0.0000000  0.0000000 -1.0000000 )


      isym = 11     inv. 180 deg rotation - cryst. axis [0,1,0]  

 cryst.   s(11) = (     1          1          0      )
                  (     0         -1          0      )
                  (     0          0          1      )

 cart.    s(11) = (  0.5000000  0.8660254  0.0000000 )
                  (  0.8660254 -0.5000000  0.0000000 )
                  (  0.0000000  0.0000000  1.0000000 )


      isym = 12     inv. 180 deg rotation - cryst. axis [1,1,0]  

 cryst.   s(12) = (     0         -1          0      )
                  (    -1          0          0      )
                  (     0          0          1      )

 cart.    s(12) = (  0.5000000 -0.8660254  0.0000000 )
                  ( -0.8660254 -0.5000000  0.0000000 )
                  (  0.0000000  0.0000000  1.0000000 )


   Cartesian axes

     site n.     atom                  positions (alat units)
         1           N   tau(   1) = (  -0.0000000   0.5773503   3.9936102  )
         2           B   tau(   2) = (   0.5000000   0.2886751   3.9936102  )

   Crystallographic axes

     site n.     atom                  positions (cryst. coord.)
         1           N   tau(   1) = (  0.3333333  0.6666667  0.5000000  )
         2           B   tau(   2) = (  0.6666667  0.3333333  0.5000000  )

     number of k points=   401
                       cart. coord. in units 2pi/alat
        k(    1) = (   0.0000000   0.0000000   0.0000000), wk =   0.0049875
        k(    2) = (   0.0050000   0.0028868   0.0000000), wk =   0.0049875
        k(    3) = (   0.0100000   0.0057735   0.0000000), wk =   0.0049875
        k(    4) = (   0.0150000   0.0086603   0.0000000), wk =   0.0049875
        k(    5) = (   0.0200000   0.0115470   0.0000000), wk =   0.0049875
        k(    6) = (   0.0250000   0.0144338   0.0000000), wk =   0.0049875
        k(    7) = (   0.0300000   0.0173205   0.0000000), wk =   0.0049875
        k(    8) = (   0.0350000   0.0202073   0.0000000), wk =   0.0049875
        k(    9) = (   0.0400000   0.0230940   0.0000000), wk =   0.0049875
        k(   10) = (   0.0450000   0.0259808   0.0000000), wk =   0.0049875
        k(   11) = (   0.0500000   0.0288675   0.0000000), wk =   0.0049875
        k(   12) = (   0.0550000   0.0317543   0.0000000), wk =   0.0049875
        k(   13) = (   0.0600000   0.0346410   0.0000000), wk =   0.0049875
        k(   14) = (   0.0650000   0.0375278   0.0000000), wk =   0.0049875
        k(   15) = (   0.0700000   0.0404145   0.0000000), wk =   0.0049875
        k(   16) = (   0.0750000   0.0433013   0.0000000), wk =   0.0049875
        k(   17) = (   0.0800000   0.0461880   0.0000000), wk =   0.0049875
        k(   18) = (   0.0850000   0.0490748   0.0000000), wk =   0.0049875
        k(   19) = (   0.0900000   0.0519615   0.0000000), wk =   0.0049875
        k(   20) = (   0.0950000   0.0548483   0.0000000), wk =   0.0049875
        k(   21) = (   0.1000000   0.0577350   0.0000000), wk =   0.0049875
        k(   22) = (   0.1050000   0.0606218   0.0000000), wk =   0.0049875
        k(   23) = (   0.1100000   0.0635085   0.0000000), wk =   0.0049875
        k(   24) = (   0.1150000   0.0663953   0.0000000), wk =   0.0049875
        k(   25) = (   0.1200000   0.0692820   0.0000000), wk =   0.0049875
        k(   26) = (   0.1250000   0.0721688   0.0000000), wk =   0.0049875
        k(   27) = (   0.1300000   0.0750555   0.0000000), wk =   0.0049875
        k(   28) = (   0.1350000   0.0779423   0.0000000), wk =   0.0049875
        k(   29) = (   0.1400000   0.0808290   0.0000000), wk =   0.0049875
        k(   30) = (   0.1450000   0.0837158   0.0000000), wk =   0.0049875
        k(   31) = (   0.1500000   0.0866025   0.0000000), wk =   0.0049875
        k(   32) = (   0.1550000   0.0894893   0.0000000), wk =   0.0049875
        k(   33) = (   0.1600000   0.0923760   0.0000000), wk =   0.0049875
        k(   34) = (   0.1650000   0.0952628   0.0000000), wk =   0.0049875
        k(   35) = (   0.1700000   0.0981495   0.0000000), wk =   0.0049875
        k(   36) = (   0.1750000   0.1010363   0.0000000), wk =   0.0049875
        k(   37) = (   0.1800000   0.1039230   0.0000000), wk =   0.0049875
        k(   38) = (   0.1850000   0.1068098   0.0000000), wk =   0.0049875
        k(   39) = (   0.1900000   0.1096966   0.0000000), wk =   0.0049875
        k(   40) = (   0.1950000   0.1125833   0.0000000), wk =   0.0049875
        k(   41) = (   0.2000000   0.1154701   0.0000000), wk =   0.0049875
        k(   42) = (   0.2050000   0.1183568   0.0000000), wk =   0.0049875
        k(   43) = (   0.2100000   0.1212436   0.0000000), wk =   0.0049875
        k(   44) = (   0.2150000   0.1241303   0.0000000), wk =   0.0049875
        k(   45) = (   0.2200000   0.1270171   0.0000000), wk =   0.0049875
        k(   46) = (   0.2250000   0.1299038   0.0000000), wk =   0.0049875
        k(   47) = (   0.2300000   0.1327906   0.0000000), wk =   0.0049875
        k(   48) = (   0.2350000   0.1356773   0.0000000), wk =   0.0049875
        k(   49) = (   0.2400000   0.1385641   0.0000000), wk =   0.0049875
        k(   50) = (   0.2450000   0.1414508   0.0000000), wk =   0.0049875
        k(   51) = (   0.2500000   0.1443376   0.0000000), wk =   0.0049875
        k(   52) = (   0.2550000   0.1472243   0.0000000), wk =   0.0049875
        k(   53) = (   0.2600000   0.1501111   0.0000000), wk =   0.0049875
        k(   54) = (   0.2650000   0.1529978   0.0000000), wk =   0.0049875
        k(   55) = (   0.2700000   0.1558846   0.0000000), wk =   0.0049875
        k(   56) = (   0.2750000   0.1587713   0.0000000), wk =   0.0049875
        k(   57) = (   0.2800000   0.1616581   0.0000000), wk =   0.0049875
        k(   58) = (   0.2850000   0.1645448   0.0000000), wk =   0.0049875
        k(   59) = (   0.2900000   0.1674316   0.0000000), wk =   0.0049875
        k(   60) = (   0.2950000   0.1703183   0.0000000), wk =   0.0049875
        k(   61) = (   0.3000000   0.1732051   0.0000000), wk =   0.0049875
        k(   62) = (   0.3050000   0.1760918   0.0000000), wk =   0.0049875
        k(   63) = (   0.3100000   0.1789786   0.0000000), wk =   0.0049875
        k(   64) = (   0.3150000   0.1818653   0.0000000), wk =   0.0049875
        k(   65) = (   0.3200000   0.1847521   0.0000000), wk =   0.0049875
        k(   66) = (   0.3250000   0.1876388   0.0000000), wk =   0.0049875
        k(   67) = (   0.3300000   0.1905256   0.0000000), wk =   0.0049875
        k(   68) = (   0.3350000   0.1934123   0.0000000), wk =   0.0049875
        k(   69) = (   0.3400000   0.1962991   0.0000000), wk =   0.0049875
        k(   70) = (   0.3450000   0.1991858   0.0000000), wk =   0.0049875
        k(   71) = (   0.3500000   0.2020726   0.0000000), wk =   0.0049875
        k(   72) = (   0.3550000   0.2049593   0.0000000), wk =   0.0049875
        k(   73) = (   0.3600000   0.2078461   0.0000000), wk =   0.0049875
        k(   74) = (   0.3650000   0.2107328   0.0000000), wk =   0.0049875
        k(   75) = (   0.3700000   0.2136196   0.0000000), wk =   0.0049875
        k(   76) = (   0.3750000   0.2165064   0.0000000), wk =   0.0049875
        k(   77) = (   0.3800000   0.2193931   0.0000000), wk =   0.0049875
        k(   78) = (   0.3850000   0.2222799   0.0000000), wk =   0.0049875
        k(   79) = (   0.3900000   0.2251666   0.0000000), wk =   0.0049875
        k(   80) = (   0.3950000   0.2280534   0.0000000), wk =   0.0049875
        k(   81) = (   0.4000000   0.2309401   0.0000000), wk =   0.0049875
        k(   82) = (   0.4050000   0.2338269   0.0000000), wk =   0.0049875
        k(   83) = (   0.4100000   0.2367136   0.0000000), wk =   0.0049875
        k(   84) = (   0.4150000   0.2396004   0.0000000), wk =   0.0049875
        k(   85) = (   0.4200000   0.2424871   0.0000000), wk =   0.0049875
        k(   86) = (   0.4250000   0.2453739   0.0000000), wk =   0.0049875
        k(   87) = (   0.4300000   0.2482606   0.0000000), wk =   0.0049875
        k(   88) = (   0.4350000   0.2511474   0.0000000), wk =   0.0049875
        k(   89) = (   0.4400000   0.2540341   0.0000000), wk =   0.0049875
        k(   90) = (   0.4450000   0.2569209   0.0000000), wk =   0.0049875
        k(   91) = (   0.4500000   0.2598076   0.0000000), wk =   0.0049875
        k(   92) = (   0.4550000   0.2626944   0.0000000), wk =   0.0049875
        k(   93) = (   0.4600000   0.2655811   0.0000000), wk =   0.0049875
        k(   94) = (   0.4650000   0.2684679   0.0000000), wk =   0.0049875
        k(   95) = (   0.4700000   0.2713546   0.0000000), wk =   0.0049875
        k(   96) = (   0.4750000   0.2742414   0.0000000), wk =   0.0049875
        k(   97) = (   0.4800000   0.2771281   0.0000000), wk =   0.0049875
        k(   98) = (   0.4850000   0.2800149   0.0000000), wk =   0.0049875
        k(   99) = (   0.4900000   0.2829016   0.0000000), wk =   0.0049875
        k(  100) = (   0.4950000   0.2857884   0.0000000), wk =   0.0049875
        k(  101) = (   0.5000000   0.2886751   0.0000000), wk =   0.0049875
        k(  102) = (   0.4983333   0.2915619   0.0000000), wk =   0.0049875
        k(  103) = (   0.4966667   0.2944486   0.0000000), wk =   0.0049875
        k(  104) = (   0.4950000   0.2973354   0.0000000), wk =   0.0049875
        k(  105) = (   0.4933333   0.3002221   0.0000000), wk =   0.0049875
        k(  106) = (   0.4916667   0.3031089   0.0000000), wk =   0.0049875
        k(  107) = (   0.4900000   0.3059956   0.0000000), wk =   0.0049875
        k(  108) = (   0.4883333   0.3088824   0.0000000), wk =   0.0049875
        k(  109) = (   0.4866667   0.3117691   0.0000000), wk =   0.0049875
        k(  110) = (   0.4850000   0.3146559   0.0000000), wk =   0.0049875
        k(  111) = (   0.4833333   0.3175426   0.0000000), wk =   0.0049875
        k(  112) = (   0.4816667   0.3204294   0.0000000), wk =   0.0049875
        k(  113) = (   0.4800000   0.3233162   0.0000000), wk =   0.0049875
        k(  114) = (   0.4783333   0.3262029   0.0000000), wk =   0.0049875
        k(  115) = (   0.4766667   0.3290897   0.0000000), wk =   0.0049875
        k(  116) = (   0.4750000   0.3319764   0.0000000), wk =   0.0049875
        k(  117) = (   0.4733333   0.3348632   0.0000000), wk =   0.0049875
        k(  118) = (   0.4716667   0.3377499   0.0000000), wk =   0.0049875
        k(  119) = (   0.4700000   0.3406367   0.0000000), wk =   0.0049875
        k(  120) = (   0.4683333   0.3435234   0.0000000), wk =   0.0049875
        k(  121) = (   0.4666667   0.3464102   0.0000000), wk =   0.0049875
        k(  122) = (   0.4650000   0.3492969   0.0000000), wk =   0.0049875
        k(  123) = (   0.4633333   0.3521837   0.0000000), wk =   0.0049875
        k(  124) = (   0.4616667   0.3550704   0.0000000), wk =   0.0049875
        k(  125) = (   0.4600000   0.3579572   0.0000000), wk =   0.0049875
        k(  126) = (   0.4583333   0.3608439   0.0000000), wk =   0.0049875
        k(  127) = (   0.4566667   0.3637307   0.0000000), wk =   0.0049875
        k(  128) = (   0.4550000   0.3666174   0.0000000), wk =   0.0049875
        k(  129) = (   0.4533333   0.3695042   0.0000000), wk =   0.0049875
        k(  130) = (   0.4516667   0.3723909   0.0000000), wk =   0.0049875
        k(  131) = (   0.4500000   0.3752777   0.0000000), wk =   0.0049875
        k(  132) = (   0.4483333   0.3781644   0.0000000), wk =   0.0049875
        k(  133) = (   0.4466667   0.3810512   0.0000000), wk =   0.0049875
        k(  134) = (   0.4450000   0.3839379   0.0000000), wk =   0.0049875
        k(  135) = (   0.4433333   0.3868247   0.0000000), wk =   0.0049875
        k(  136) = (   0.4416667   0.3897114   0.0000000), wk =   0.0049875
        k(  137) = (   0.4400000   0.3925982   0.0000000), wk =   0.0049875
        k(  138) = (   0.4383333   0.3954849   0.0000000), wk =   0.0049875
        k(  139) = (   0.4366667   0.3983717   0.0000000), wk =   0.0049875
        k(  140) = (   0.4350000   0.4012584   0.0000000), wk =   0.0049875
        k(  141) = (   0.4333333   0.4041452   0.0000000), wk =   0.0049875
        k(  142) = (   0.4316667   0.4070319   0.0000000), wk =   0.0049875
        k(  143) = (   0.4300000   0.4099187   0.0000000), wk =   0.0049875
        k(  144) = (   0.4283333   0.4128054   0.0000000), wk =   0.0049875
        k(  145) = (   0.4266667   0.4156922   0.0000000), wk =   0.0049875
        k(  146) = (   0.4250000   0.4185789   0.0000000), wk =   0.0049875
        k(  147) = (   0.4233333   0.4214657   0.0000000), wk =   0.0049875
        k(  148) = (   0.4216667   0.4243524   0.0000000), wk =   0.0049875
        k(  149) = (   0.4200000   0.4272392   0.0000000), wk =   0.0049875
        k(  150) = (   0.4183333   0.4301260   0.0000000), wk =   0.0049875
        k(  151) = (   0.4166667   0.4330127   0.0000000), wk =   0.0049875
        k(  152) = (   0.4150000   0.4358995   0.0000000), wk =   0.0049875
        k(  153) = (   0.4133333   0.4387862   0.0000000), wk =   0.0049875
        k(  154) = (   0.4116667   0.4416730   0.0000000), wk =   0.0049875
        k(  155) = (   0.4100000   0.4445597   0.0000000), wk =   0.0049875
        k(  156) = (   0.4083333   0.4474465   0.0000000), wk =   0.0049875
        k(  157) = (   0.4066667   0.4503332   0.0000000), wk =   0.0049875
        k(  158) = (   0.4050000   0.4532200   0.0000000), wk =   0.0049875
        k(  159) = (   0.4033333   0.4561067   0.0000000), wk =   0.0049875
        k(  160) = (   0.4016667   0.4589935   0.0000000), wk =   0.0049875
        k(  161) = (   0.4000000   0.4618802   0.0000000), wk =   0.0049875
        k(  162) = (   0.3983333   0.4647670   0.0000000), wk =   0.0049875
        k(  163) = (   0.3966667   0.4676537   0.0000000), wk =   0.0049875
        k(  164) = (   0.3950000   0.4705405   0.0000000), wk =   0.0049875
        k(  165) = (   0.3933333   0.4734272   0.0000000), wk =   0.0049875
        k(  166) = (   0.3916667   0.4763140   0.0000000), wk =   0.0049875
        k(  167) = (   0.3900000   0.4792007   0.0000000), wk =   0.0049875
        k(  168) = (   0.3883333   0.4820875   0.0000000), wk =   0.0049875
        k(  169) = (   0.3866667   0.4849742   0.0000000), wk =   0.0049875
        k(  170) = (   0.3850000   0.4878610   0.0000000), wk =   0.0049875
        k(  171) = (   0.3833333   0.4907477   0.0000000), wk =   0.0049875
        k(  172) = (   0.3816667   0.4936345   0.0000000), wk =   0.0049875
        k(  173) = (   0.3800000   0.4965212   0.0000000), wk =   0.0049875
        k(  174) = (   0.3783333   0.4994080   0.0000000), wk =   0.0049875
        k(  175) = (   0.3766667   0.5022947   0.0000000), wk =   0.0049875
        k(  176) = (   0.3750000   0.5051815   0.0000000), wk =   0.0049875
        k(  177) = (   0.3733333   0.5080682   0.0000000), wk =   0.0049875
        k(  178) = (   0.3716667   0.5109550   0.0000000), wk =   0.0049875
        k(  179) = (   0.3700000   0.5138417   0.0000000), wk =   0.0049875
        k(  180) = (   0.3683333   0.5167285   0.0000000), wk =   0.0049875
        k(  181) = (   0.3666667   0.5196152   0.0000000), wk =   0.0049875
        k(  182) = (   0.3650000   0.5225020   0.0000000), wk =   0.0049875
        k(  183) = (   0.3633333   0.5253887   0.0000000), wk =   0.0049875
        k(  184) = (   0.3616667   0.5282755   0.0000000), wk =   0.0049875
        k(  185) = (   0.3600000   0.5311622   0.0000000), wk =   0.0049875
        k(  186) = (   0.3583333   0.5340490   0.0000000), wk =   0.0049875
        k(  187) = (   0.3566667   0.5369358   0.0000000), wk =   0.0049875
        k(  188) = (   0.3550000   0.5398225   0.0000000), wk =   0.0049875
        k(  189) = (   0.3533333   0.5427093   0.0000000), wk =   0.0049875
        k(  190) = (   0.3516667   0.5455960   0.0000000), wk =   0.0049875
        k(  191) = (   0.3500000   0.5484828   0.0000000), wk =   0.0049875
        k(  192) = (   0.3483333   0.5513695   0.0000000), wk =   0.0049875
        k(  193) = (   0.3466667   0.5542563   0.0000000), wk =   0.0049875
        k(  194) = (   0.3450000   0.5571430   0.0000000), wk =   0.0049875
        k(  195) = (   0.3433333   0.5600298   0.0000000), wk =   0.0049875
        k(  196) = (   0.3416667   0.5629165   0.0000000), wk =   0.0049875
        k(  197) = (   0.3400000   0.5658033   0.0000000), wk =   0.0049875
        k(  198) = (   0.3383333   0.5686900   0.0000000), wk =   0.0049875
        k(  199) = (   0.3366667   0.5715768   0.0000000), wk =   0.0049875
        k(  200) = (   0.3350000   0.5744635   0.0000000), wk =   0.0049875
        k(  201) = (   0.3333333   0.5773503   0.0000000), wk =   0.0049875
        k(  202) = (   0.3300000   0.5715768   0.0000000), wk =   0.0049875
        k(  203) = (   0.3266667   0.5658033   0.0000000), wk =   0.0049875
        k(  204) = (   0.3233333   0.5600298   0.0000000), wk =   0.0049875
        k(  205) = (   0.3200000   0.5542563   0.0000000), wk =   0.0049875
        k(  206) = (   0.3166667   0.5484828   0.0000000), wk =   0.0049875
        k(  207) = (   0.3133333   0.5427093   0.0000000), wk =   0.0049875
        k(  208) = (   0.3100000   0.5369358   0.0000000), wk =   0.0049875
        k(  209) = (   0.3066667   0.5311622   0.0000000), wk =   0.0049875
        k(  210) = (   0.3033333   0.5253887   0.0000000), wk =   0.0049875
        k(  211) = (   0.3000000   0.5196152   0.0000000), wk =   0.0049875
        k(  212) = (   0.2966667   0.5138417   0.0000000), wk =   0.0049875
        k(  213) = (   0.2933333   0.5080682   0.0000000), wk =   0.0049875
        k(  214) = (   0.2900000   0.5022947   0.0000000), wk =   0.0049875
        k(  215) = (   0.2866667   0.4965212   0.0000000), wk =   0.0049875
        k(  216) = (   0.2833333   0.4907477   0.0000000), wk =   0.0049875
        k(  217) = (   0.2800000   0.4849742   0.0000000), wk =   0.0049875
        k(  218) = (   0.2766667   0.4792007   0.0000000), wk =   0.0049875
        k(  219) = (   0.2733333   0.4734272   0.0000000), wk =   0.0049875
        k(  220) = (   0.2700000   0.4676537   0.0000000), wk =   0.0049875
        k(  221) = (   0.2666667   0.4618802   0.0000000), wk =   0.0049875
        k(  222) = (   0.2633333   0.4561067   0.0000000), wk =   0.0049875
        k(  223) = (   0.2600000   0.4503332   0.0000000), wk =   0.0049875
        k(  224) = (   0.2566667   0.4445597   0.0000000), wk =   0.0049875
        k(  225) = (   0.2533333   0.4387862   0.0000000), wk =   0.0049875
        k(  226) = (   0.2500000   0.4330127   0.0000000), wk =   0.0049875
        k(  227) = (   0.2466667   0.4272392   0.0000000), wk =   0.0049875
        k(  228) = (   0.2433333   0.4214657   0.0000000), wk =   0.0049875
        k(  229) = (   0.2400000   0.4156922   0.0000000), wk =   0.0049875
        k(  230) = (   0.2366667   0.4099187   0.0000000), wk =   0.0049875
        k(  231) = (   0.2333333   0.4041452   0.0000000), wk =   0.0049875
        k(  232) = (   0.2300000   0.3983717   0.0000000), wk =   0.0049875
        k(  233) = (   0.2266667   0.3925982   0.0000000), wk =   0.0049875
        k(  234) = (   0.2233333   0.3868247   0.0000000), wk =   0.0049875
        k(  235) = (   0.2200000   0.3810512   0.0000000), wk =   0.0049875
        k(  236) = (   0.2166667   0.3752777   0.0000000), wk =   0.0049875
        k(  237) = (   0.2133333   0.3695042   0.0000000), wk =   0.0049875
        k(  238) = (   0.2100000   0.3637307   0.0000000), wk =   0.0049875
        k(  239) = (   0.2066667   0.3579572   0.0000000), wk =   0.0049875
        k(  240) = (   0.2033333   0.3521837   0.0000000), wk =   0.0049875
        k(  241) = (   0.2000000   0.3464102   0.0000000), wk =   0.0049875
        k(  242) = (   0.1966667   0.3406367   0.0000000), wk =   0.0049875
        k(  243) = (   0.1933333   0.3348632   0.0000000), wk =   0.0049875
        k(  244) = (   0.1900000   0.3290897   0.0000000), wk =   0.0049875
        k(  245) = (   0.1866667   0.3233162   0.0000000), wk =   0.0049875
        k(  246) = (   0.1833333   0.3175426   0.0000000), wk =   0.0049875
        k(  247) = (   0.1800000   0.3117691   0.0000000), wk =   0.0049875
        k(  248) = (   0.1766667   0.3059956   0.0000000), wk =   0.0049875
        k(  249) = (   0.1733333   0.3002221   0.0000000), wk =   0.0049875
        k(  250) = (   0.1700000   0.2944486   0.0000000), wk =   0.0049875
        k(  251) = (   0.1666667   0.2886751   0.0000000), wk =   0.0049875
        k(  252) = (   0.1633333   0.2829016   0.0000000), wk =   0.0049875
        k(  253) = (   0.1600000   0.2771281   0.0000000), wk =   0.0049875
        k(  254) = (   0.1566667   0.2713546   0.0000000), wk =   0.0049875
        k(  255) = (   0.1533333   0.2655811   0.0000000), wk =   0.0049875
        k(  256) = (   0.1500000   0.2598076   0.0000000), wk =   0.0049875
        k(  257) = (   0.1466667   0.2540341   0.0000000), wk =   0.0049875
        k(  258) = (   0.1433333   0.2482606   0.0000000), wk =   0.0049875
        k(  259) = (   0.1400000   0.2424871   0.0000000), wk =   0.0049875
        k(  260) = (   0.1366667   0.2367136   0.0000000), wk =   0.0049875
        k(  261) = (   0.1333333   0.2309401   0.0000000), wk =   0.0049875
        k(  262) = (   0.1300000   0.2251666   0.0000000), wk =   0.0049875
        k(  263) = (   0.1266667   0.2193931   0.0000000), wk =   0.0049875
        k(  264) = (   0.1233333   0.2136196   0.0000000), wk =   0.0049875
        k(  265) = (   0.1200000   0.2078461   0.0000000), wk =   0.0049875
        k(  266) = (   0.1166667   0.2020726   0.0000000), wk =   0.0049875
        k(  267) = (   0.1133333   0.1962991   0.0000000), wk =   0.0049875
        k(  268) = (   0.1100000   0.1905256   0.0000000), wk =   0.0049875
        k(  269) = (   0.1066667   0.1847521   0.0000000), wk =   0.0049875
        k(  270) = (   0.1033333   0.1789786   0.0000000), wk =   0.0049875
        k(  271) = (   0.1000000   0.1732051   0.0000000), wk =   0.0049875
        k(  272) = (   0.0966667   0.1674316   0.0000000), wk =   0.0049875
        k(  273) = (   0.0933333   0.1616581   0.0000000), wk =   0.0049875
        k(  274) = (   0.0900000   0.1558846   0.0000000), wk =   0.0049875
        k(  275) = (   0.0866667   0.1501111   0.0000000), wk =   0.0049875
        k(  276) = (   0.0833333   0.1443376   0.0000000), wk =   0.0049875
        k(  277) = (   0.0800000   0.1385641   0.0000000), wk =   0.0049875
        k(  278) = (   0.0766667   0.1327906   0.0000000), wk =   0.0049875
        k(  279) = (   0.0733333   0.1270171   0.0000000), wk =   0.0049875
        k(  280) = (   0.0700000   0.1212436   0.0000000), wk =   0.0049875
        k(  281) = (   0.0666667   0.1154701   0.0000000), wk =   0.0049875
        k(  282) = (   0.0633333   0.1096966   0.0000000), wk =   0.0049875
        k(  283) = (   0.0600000   0.1039230   0.0000000), wk =   0.0049875
        k(  284) = (   0.0566667   0.0981495   0.0000000), wk =   0.0049875
        k(  285) = (   0.0533333   0.0923760   0.0000000), wk =   0.0049875
        k(  286) = (   0.0500000   0.0866025   0.0000000), wk =   0.0049875
        k(  287) = (   0.0466667   0.0808290   0.0000000), wk =   0.0049875
        k(  288) = (   0.0433333   0.0750555   0.0000000), wk =   0.0049875
        k(  289) = (   0.0400000   0.0692820   0.0000000), wk =   0.0049875
        k(  290) = (   0.0366667   0.0635085   0.0000000), wk =   0.0049875
        k(  291) = (   0.0333333   0.0577350   0.0000000), wk =   0.0049875
        k(  292) = (   0.0300000   0.0519615   0.0000000), wk =   0.0049875
        k(  293) = (   0.0266667   0.0461880   0.0000000), wk =   0.0049875
        k(  294) = (   0.0233333   0.0404145   0.0000000), wk =   0.0049875
        k(  295) = (   0.0200000   0.0346410   0.0000000), wk =   0.0049875
        k(  296) = (   0.0166667   0.0288675   0.0000000), wk =   0.0049875
        k(  297) = (   0.0133333   0.0230940   0.0000000), wk =   0.0049875
        k(  298) = (   0.0100000   0.0173205   0.0000000), wk =   0.0049875
        k(  299) = (   0.0066667   0.0115470   0.0000000), wk =   0.0049875
        k(  300) = (   0.0033333   0.0057735   0.0000000), wk =   0.0049875
        k(  301) = (   0.0000000   0.0000000   0.0000000), wk =   0.0049875
        k(  302) = (  -0.0033333  -0.0057735   0.0000000), wk =   0.0049875
        k(  303) = (  -0.0066667  -0.0115470   0.0000000), wk =   0.0049875
        k(  304) = (  -0.0100000  -0.0173205   0.0000000), wk =   0.0049875
        k(  305) = (  -0.0133333  -0.0230940   0.0000000), wk =   0.0049875
        k(  306) = (  -0.0166667  -0.0288675   0.0000000), wk =   0.0049875
        k(  307) = (  -0.0200000  -0.0346410   0.0000000), wk =   0.0049875
        k(  308) = (  -0.0233333  -0.0404145   0.0000000), wk =   0.0049875
        k(  309) = (  -0.0266667  -0.0461880   0.0000000), wk =   0.0049875
        k(  310) = (  -0.0300000  -0.0519615   0.0000000), wk =   0.0049875
        k(  311) = (  -0.0333333  -0.0577350   0.0000000), wk =   0.0049875
        k(  312) = (  -0.0366667  -0.0635085   0.0000000), wk =   0.0049875
        k(  313) = (  -0.0400000  -0.0692820   0.0000000), wk =   0.0049875
        k(  314) = (  -0.0433333  -0.0750555   0.0000000), wk =   0.0049875
        k(  315) = (  -0.0466667  -0.0808290   0.0000000), wk =   0.0049875
        k(  316) = (  -0.0500000  -0.0866025   0.0000000), wk =   0.0049875
        k(  317) = (  -0.0533333  -0.0923760   0.0000000), wk =   0.0049875
        k(  318) = (  -0.0566667  -0.0981495   0.0000000), wk =   0.0049875
        k(  319) = (  -0.0600000  -0.1039230   0.0000000), wk =   0.0049875
        k(  320) = (  -0.0633333  -0.1096966   0.0000000), wk =   0.0049875
        k(  321) = (  -0.0666667  -0.1154701   0.0000000), wk =   0.0049875
        k(  322) = (  -0.0700000  -0.1212436   0.0000000), wk =   0.0049875
        k(  323) = (  -0.0733333  -0.1270171   0.0000000), wk =   0.0049875
        k(  324) = (  -0.0766667  -0.1327906   0.0000000), wk =   0.0049875
        k(  325) = (  -0.0800000  -0.1385641   0.0000000), wk =   0.0049875
        k(  326) = (  -0.0833333  -0.1443376   0.0000000), wk =   0.0049875
        k(  327) = (  -0.0866667  -0.1501111   0.0000000), wk =   0.0049875
        k(  328) = (  -0.0900000  -0.1558846   0.0000000), wk =   0.0049875
        k(  329) = (  -0.0933333  -0.1616581   0.0000000), wk =   0.0049875
        k(  330) = (  -0.0966667  -0.1674316   0.0000000), wk =   0.0049875
        k(  331) = (  -0.1000000  -0.1732051   0.0000000), wk =   0.0049875
        k(  332) = (  -0.1033333  -0.1789786   0.0000000), wk =   0.0049875
        k(  333) = (  -0.1066667  -0.1847521   0.0000000), wk =   0.0049875
        k(  334) = (  -0.1100000  -0.1905256   0.0000000), wk =   0.0049875
        k(  335) = (  -0.1133333  -0.1962991   0.0000000), wk =   0.0049875
        k(  336) = (  -0.1166667  -0.2020726   0.0000000), wk =   0.0049875
        k(  337) = (  -0.1200000  -0.2078461   0.0000000), wk =   0.0049875
        k(  338) = (  -0.1233333  -0.2136196   0.0000000), wk =   0.0049875
        k(  339) = (  -0.1266667  -0.2193931   0.0000000), wk =   0.0049875
        k(  340) = (  -0.1300000  -0.2251666   0.0000000), wk =   0.0049875
        k(  341) = (  -0.1333333  -0.2309401   0.0000000), wk =   0.0049875
        k(  342) = (  -0.1366667  -0.2367136   0.0000000), wk =   0.0049875
        k(  343) = (  -0.1400000  -0.2424871   0.0000000), wk =   0.0049875
        k(  344) = (  -0.1433333  -0.2482606   0.0000000), wk =   0.0049875
        k(  345) = (  -0.1466667  -0.2540341   0.0000000), wk =   0.0049875
        k(  346) = (  -0.1500000  -0.2598076   0.0000000), wk =   0.0049875
        k(  347) = (  -0.1533333  -0.2655811   0.0000000), wk =   0.0049875
        k(  348) = (  -0.1566667  -0.2713546   0.0000000), wk =   0.0049875
        k(  349) = (  -0.1600000  -0.2771281   0.0000000), wk =   0.0049875
        k(  350) = (  -0.1633333  -0.2829016   0.0000000), wk =   0.0049875
        k(  351) = (  -0.1666667  -0.2886751   0.0000000), wk =   0.0049875
        k(  352) = (  -0.1700000  -0.2944486   0.0000000), wk =   0.0049875
        k(  353) = (  -0.1733333  -0.3002221   0.0000000), wk =   0.0049875
        k(  354) = (  -0.1766667  -0.3059956   0.0000000), wk =   0.0049875
        k(  355) = (  -0.1800000  -0.3117691   0.0000000), wk =   0.0049875
        k(  356) = (  -0.1833333  -0.3175426   0.0000000), wk =   0.0049875
        k(  357) = (  -0.1866667  -0.3233162   0.0000000), wk =   0.0049875
        k(  358) = (  -0.1900000  -0.3290897   0.0000000), wk =   0.0049875
        k(  359) = (  -0.1933333  -0.3348632   0.0000000), wk =   0.0049875
        k(  360) = (  -0.1966667  -0.3406367   0.0000000), wk =   0.0049875
        k(  361) = (  -0.2000000  -0.3464102   0.0000000), wk =   0.0049875
        k(  362) = (  -0.2033333  -0.3521837   0.0000000), wk =   0.0049875
        k(  363) = (  -0.2066667  -0.3579572   0.0000000), wk =   0.0049875
        k(  364) = (  -0.2100000  -0.3637307   0.0000000), wk =   0.0049875
        k(  365) = (  -0.2133333  -0.3695042   0.0000000), wk =   0.0049875
        k(  366) = (  -0.2166667  -0.3752777   0.0000000), wk =   0.0049875
        k(  367) = (  -0.2200000  -0.3810512   0.0000000), wk =   0.0049875
        k(  368) = (  -0.2233333  -0.3868247   0.0000000), wk =   0.0049875
        k(  369) = (  -0.2266667  -0.3925982   0.0000000), wk =   0.0049875
        k(  370) = (  -0.2300000  -0.3983717   0.0000000), wk =   0.0049875
        k(  371) = (  -0.2333333  -0.4041452   0.0000000), wk =   0.0049875
        k(  372) = (  -0.2366667  -0.4099187   0.0000000), wk =   0.0049875
        k(  373) = (  -0.2400000  -0.4156922   0.0000000), wk =   0.0049875
        k(  374) = (  -0.2433333  -0.4214657   0.0000000), wk =   0.0049875
        k(  375) = (  -0.2466667  -0.4272392   0.0000000), wk =   0.0049875
        k(  376) = (  -0.2500000  -0.4330127   0.0000000), wk =   0.0049875
        k(  377) = (  -0.2533333  -0.4387862   0.0000000), wk =   0.0049875
        k(  378) = (  -0.2566667  -0.4445597   0.0000000), wk =   0.0049875
        k(  379) = (  -0.2600000  -0.4503332   0.0000000), wk =   0.0049875
        k(  380) = (  -0.2633333  -0.4561067   0.0000000), wk =   0.0049875
        k(  381) = (  -0.2666667  -0.4618802   0.0000000), wk =   0.0049875
        k(  382) = (  -0.2700000  -0.4676537   0.0000000), wk =   0.0049875
        k(  383) = (  -0.2733333  -0.4734272   0.0000000), wk =   0.0049875
        k(  384) = (  -0.2766667  -0.4792007   0.0000000), wk =   0.0049875
        k(  385) = (  -0.2800000  -0.4849742   0.0000000), wk =   0.0049875
        k(  386) = (  -0.2833333  -0.4907477   0.0000000), wk =   0.0049875
        k(  387) = (  -0.2866667  -0.4965212   0.0000000), wk =   0.0049875
        k(  388) = (  -0.2900000  -0.5022947   0.0000000), wk =   0.0049875
        k(  389) = (  -0.2933333  -0.5080682   0.0000000), wk =   0.0049875
        k(  390) = (  -0.2966667  -0.5138417   0.0000000), wk =   0.0049875
        k(  391) = (  -0.3000000  -0.5196152   0.0000000), wk =   0.0049875
        k(  392) = (  -0.3033333  -0.5253887   0.0000000), wk =   0.0049875
        k(  393) = (  -0.3066667  -0.5311622   0.0000000), wk =   0.0049875
        k(  394) = (  -0.3100000  -0.5369358   0.0000000), wk =   0.0049875
        k(  395) = (  -0.3133333  -0.5427093   0.0000000), wk =   0.0049875
        k(  396) = (  -0.3166667  -0.5484828   0.0000000), wk =   0.0049875
        k(  397) = (  -0.3200000  -0.5542563   0.0000000), wk =   0.0049875
        k(  398) = (  -0.3233333  -0.5600298   0.0000000), wk =   0.0049875
        k(  399) = (  -0.3266667  -0.5658033   0.0000000), wk =   0.0049875
        k(  400) = (  -0.3300000  -0.5715768   0.0000000), wk =   0.0049875
        k(  401) = (  -0.3333333  -0.5773503   0.0000000), wk =   0.0049875

                       cryst. coord.
        k(    1) = (   0.0000000   0.0000000   0.0000000), wk =   0.0049875
        k(    2) = (   0.0050000   0.0000000   0.0000000), wk =   0.0049875
        k(    3) = (   0.0100000   0.0000000   0.0000000), wk =   0.0049875
        k(    4) = (   0.0150000   0.0000000   0.0000000), wk =   0.0049875
        k(    5) = (   0.0200000   0.0000000   0.0000000), wk =   0.0049875
        k(    6) = (   0.0250000   0.0000000   0.0000000), wk =   0.0049875
        k(    7) = (   0.0300000   0.0000000   0.0000000), wk =   0.0049875
        k(    8) = (   0.0350000  -0.0000000   0.0000000), wk =   0.0049875
        k(    9) = (   0.0400000   0.0000000   0.0000000), wk =   0.0049875
        k(   10) = (   0.0450000  -0.0000000   0.0000000), wk =   0.0049875
        k(   11) = (   0.0500000   0.0000000   0.0000000), wk =   0.0049875
        k(   12) = (   0.0550000   0.0000000   0.0000000), wk =   0.0049875
        k(   13) = (   0.0600000   0.0000000   0.0000000), wk =   0.0049875
        k(   14) = (   0.0650000   0.0000000   0.0000000), wk =   0.0049875
        k(   15) = (   0.0700000  -0.0000000   0.0000000), wk =   0.0049875
        k(   16) = (   0.0750000   0.0000000   0.0000000), wk =   0.0049875
        k(   17) = (   0.0800000   0.0000000   0.0000000), wk =   0.0049875
        k(   18) = (   0.0850000  -0.0000000   0.0000000), wk =   0.0049875
        k(   19) = (   0.0900000  -0.0000000   0.0000000), wk =   0.0049875
        k(   20) = (   0.0950000   0.0000000   0.0000000), wk =   0.0049875
        k(   21) = (   0.1000000   0.0000000   0.0000000), wk =   0.0049875
        k(   22) = (   0.1050000   0.0000000   0.0000000), wk =   0.0049875
        k(   23) = (   0.1100000   0.0000000   0.0000000), wk =   0.0049875
        k(   24) = (   0.1150000  -0.0000000   0.0000000), wk =   0.0049875
        k(   25) = (   0.1200000   0.0000000   0.0000000), wk =   0.0049875
        k(   26) = (   0.1250000   0.0000000   0.0000000), wk =   0.0049875
        k(   27) = (   0.1300000   0.0000000   0.0000000), wk =   0.0049875
        k(   28) = (   0.1350000   0.0000000   0.0000000), wk =   0.0049875
        k(   29) = (   0.1400000  -0.0000000   0.0000000), wk =   0.0049875
        k(   30) = (   0.1450000  -0.0000000   0.0000000), wk =   0.0049875
        k(   31) = (   0.1500000   0.0000000   0.0000000), wk =   0.0049875
        k(   32) = (   0.1550000   0.0000000   0.0000000), wk =   0.0049875
        k(   33) = (   0.1600000   0.0000000   0.0000000), wk =   0.0049875
        k(   34) = (   0.1650000   0.0000000   0.0000000), wk =   0.0049875
        k(   35) = (   0.1700000  -0.0000000   0.0000000), wk =   0.0049875
        k(   36) = (   0.1750000  -0.0000000   0.0000000), wk =   0.0049875
        k(   37) = (   0.1800000  -0.0000000   0.0000000), wk =   0.0049875
        k(   38) = (   0.1850000  -0.0000000   0.0000000), wk =   0.0049875
        k(   39) = (   0.1900000   0.0000000   0.0000000), wk =   0.0049875
        k(   40) = (   0.1950000   0.0000000   0.0000000), wk =   0.0049875
        k(   41) = (   0.2000000   0.0000000   0.0000000), wk =   0.0049875
        k(   42) = (   0.2050000   0.0000000   0.0000000), wk =   0.0049875
        k(   43) = (   0.2100000   0.0000000   0.0000000), wk =   0.0049875
        k(   44) = (   0.2150000   0.0000000   0.0000000), wk =   0.0049875
        k(   45) = (   0.2200000   0.0000000   0.0000000), wk =   0.0049875
        k(   46) = (   0.2250000   0.0000000   0.0000000), wk =   0.0049875
        k(   47) = (   0.2300000  -0.0000000   0.0000000), wk =   0.0049875
        k(   48) = (   0.2350000   0.0000000   0.0000000), wk =   0.0049875
        k(   49) = (   0.2400000   0.0000000   0.0000000), wk =   0.0049875
        k(   50) = (   0.2450000  -0.0000000   0.0000000), wk =   0.0049875
        k(   51) = (   0.2500000   0.0000000   0.0000000), wk =   0.0049875
        k(   52) = (   0.2550000   0.0000000   0.0000000), wk =   0.0049875
        k(   53) = (   0.2600000   0.0000000   0.0000000), wk =   0.0049875
        k(   54) = (   0.2650000   0.0000000   0.0000000), wk =   0.0049875
        k(   55) = (   0.2700000   0.0000000   0.0000000), wk =   0.0049875
        k(   56) = (   0.2750000   0.0000000   0.0000000), wk =   0.0049875
        k(   57) = (   0.2800000  -0.0000000   0.0000000), wk =   0.0049875
        k(   58) = (   0.2850000   0.0000000   0.0000000), wk =   0.0049875
        k(   59) = (   0.2900000  -0.0000000   0.0000000), wk =   0.0049875
        k(   60) = (   0.2950000   0.0000000   0.0000000), wk =   0.0049875
        k(   61) = (   0.3000000   0.0000000   0.0000000), wk =   0.0049875
        k(   62) = (   0.3050000   0.0000000   0.0000000), wk =   0.0049875
        k(   63) = (   0.3100000   0.0000000   0.0000000), wk =   0.0049875
        k(   64) = (   0.3150000  -0.0000000   0.0000000), wk =   0.0049875
        k(   65) = (   0.3200000   0.0000000   0.0000000), wk =   0.0049875
        k(   66) = (   0.3250000  -0.0000000   0.0000000), wk =   0.0049875
        k(   67) = (   0.3300000   0.0000000   0.0000000), wk =   0.0049875
        k(   68) = (   0.3350000   0.0000000   0.0000000), wk =   0.0049875
        k(   69) = (   0.3400000  -0.0000000   0.0000000), wk =   0.0049875
        k(   70) = (   0.3450000   0.0000000   0.0000000), wk =   0.0049875
        k(   71) = (   0.3500000  -0.0000000   0.0000000), wk =   0.0049875
        k(   72) = (   0.3550000   0.0000000   0.0000000), wk =   0.0049875
        k(   73) = (   0.3600000  -0.0000000   0.0000000), wk =   0.0049875
        k(   74) = (   0.3650000   0.0000000   0.0000000), wk =   0.0049875
        k(   75) = (   0.3700000  -0.0000000   0.0000000), wk =   0.0049875
        k(   76) = (   0.3750000   0.0000000   0.0000000), wk =   0.0049875
        k(   77) = (   0.3800000   0.0000000   0.0000000), wk =   0.0049875
        k(   78) = (   0.3850000   0.0000000   0.0000000), wk =   0.0049875
        k(   79) = (   0.3900000   0.0000000   0.0000000), wk =   0.0049875
        k(   80) = (   0.3950000   0.0000000   0.0000000), wk =   0.0049875
        k(   81) = (   0.4000000   0.0000000   0.0000000), wk =   0.0049875
        k(   82) = (   0.4050000   0.0000000   0.0000000), wk =   0.0049875
        k(   83) = (   0.4100000   0.0000000   0.0000000), wk =   0.0049875
        k(   84) = (   0.4150000   0.0000000   0.0000000), wk =   0.0049875
        k(   85) = (   0.4200000   0.0000000   0.0000000), wk =   0.0049875
        k(   86) = (   0.4250000   0.0000000   0.0000000), wk =   0.0049875
        k(   87) = (   0.4300000   0.0000000   0.0000000), wk =   0.0049875
        k(   88) = (   0.4350000   0.0000000   0.0000000), wk =   0.0049875
        k(   89) = (   0.4400000   0.0000000   0.0000000), wk =   0.0049875
        k(   90) = (   0.4450000  -0.0000000   0.0000000), wk =   0.0049875
        k(   91) = (   0.4500000   0.0000000   0.0000000), wk =   0.0049875
        k(   92) = (   0.4550000   0.0000000   0.0000000), wk =   0.0049875
        k(   93) = (   0.4600000  -0.0000000   0.0000000), wk =   0.0049875
        k(   94) = (   0.4650000   0.0000000   0.0000000), wk =   0.0049875
        k(   95) = (   0.4700000   0.0000000   0.0000000), wk =   0.0049875
        k(   96) = (   0.4750000   0.0000000   0.0000000), wk =   0.0049875
        k(   97) = (   0.4800000   0.0000000   0.0000000), wk =   0.0049875
        k(   98) = (   0.4850000   0.0000000   0.0000000), wk =   0.0049875
        k(   99) = (   0.4900000  -0.0000000   0.0000000), wk =   0.0049875
        k(  100) = (   0.4950000   0.0000000   0.0000000), wk =   0.0049875
        k(  101) = (   0.5000000   0.0000000   0.0000000), wk =   0.0049875
        k(  102) = (   0.4983333   0.0033333   0.0000000), wk =   0.0049875
        k(  103) = (   0.4966667   0.0066667   0.0000000), wk =   0.0049875
        k(  104) = (   0.4950000   0.0100000   0.0000000), wk =   0.0049875
        k(  105) = (   0.4933333   0.0133333   0.0000000), wk =   0.0049875
        k(  106) = (   0.4916667   0.0166667   0.0000000), wk =   0.0049875
        k(  107) = (   0.4900000   0.0200000   0.0000000), wk =   0.0049875
        k(  108) = (   0.4883333   0.0233333   0.0000000), wk =   0.0049875
        k(  109) = (   0.4866667   0.0266667   0.0000000), wk =   0.0049875
        k(  110) = (   0.4850000   0.0300000   0.0000000), wk =   0.0049875
        k(  111) = (   0.4833333   0.0333333   0.0000000), wk =   0.0049875
        k(  112) = (   0.4816667   0.0366667   0.0000000), wk =   0.0049875
        k(  113) = (   0.4800000   0.0400000   0.0000000), wk =   0.0049875
        k(  114) = (   0.4783333   0.0433333   0.0000000), wk =   0.0049875
        k(  115) = (   0.4766667   0.0466667   0.0000000), wk =   0.0049875
        k(  116) = (   0.4750000   0.0500000   0.0000000), wk =   0.0049875
        k(  117) = (   0.4733333   0.0533333   0.0000000), wk =   0.0049875
        k(  118) = (   0.4716667   0.0566667   0.0000000), wk =   0.0049875
        k(  119) = (   0.4700000   0.0600000   0.0000000), wk =   0.0049875
        k(  120) = (   0.4683333   0.0633333   0.0000000), wk =   0.0049875
        k(  121) = (   0.4666667   0.0666667   0.0000000), wk =   0.0049875
        k(  122) = (   0.4650000   0.0700000   0.0000000), wk =   0.0049875
        k(  123) = (   0.4633333   0.0733333   0.0000000), wk =   0.0049875
        k(  124) = (   0.4616667   0.0766667   0.0000000), wk =   0.0049875
        k(  125) = (   0.4600000   0.0800000   0.0000000), wk =   0.0049875
        k(  126) = (   0.4583333   0.0833333   0.0000000), wk =   0.0049875
        k(  127) = (   0.4566667   0.0866667   0.0000000), wk =   0.0049875
        k(  128) = (   0.4550000   0.0900000   0.0000000), wk =   0.0049875
        k(  129) = (   0.4533333   0.0933333   0.0000000), wk =   0.0049875
        k(  130) = (   0.4516667   0.0966667   0.0000000), wk =   0.0049875
        k(  131) = (   0.4500000   0.1000000   0.0000000), wk =   0.0049875
        k(  132) = (   0.4483333   0.1033333   0.0000000), wk =   0.0049875
        k(  133) = (   0.4466667   0.1066667   0.0000000), wk =   0.0049875
        k(  134) = (   0.4450000   0.1100000   0.0000000), wk =   0.0049875
        k(  135) = (   0.4433333   0.1133333   0.0000000), wk =   0.0049875
        k(  136) = (   0.4416667   0.1166667   0.0000000), wk =   0.0049875
        k(  137) = (   0.4400000   0.1200000   0.0000000), wk =   0.0049875
        k(  138) = (   0.4383333   0.1233333   0.0000000), wk =   0.0049875
        k(  139) = (   0.4366667   0.1266667   0.0000000), wk =   0.0049875
        k(  140) = (   0.4350000   0.1300000   0.0000000), wk =   0.0049875
        k(  141) = (   0.4333333   0.1333333   0.0000000), wk =   0.0049875
        k(  142) = (   0.4316667   0.1366667   0.0000000), wk =   0.0049875
        k(  143) = (   0.4300000   0.1400000   0.0000000), wk =   0.0049875
        k(  144) = (   0.4283333   0.1433333   0.0000000), wk =   0.0049875
        k(  145) = (   0.4266667   0.1466667   0.0000000), wk =   0.0049875
        k(  146) = (   0.4250000   0.1500000   0.0000000), wk =   0.0049875
        k(  147) = (   0.4233333   0.1533333   0.0000000), wk =   0.0049875
        k(  148) = (   0.4216667   0.1566667   0.0000000), wk =   0.0049875
        k(  149) = (   0.4200000   0.1600000   0.0000000), wk =   0.0049875
        k(  150) = (   0.4183333   0.1633333   0.0000000), wk =   0.0049875
        k(  151) = (   0.4166667   0.1666667   0.0000000), wk =   0.0049875
        k(  152) = (   0.4150000   0.1700000   0.0000000), wk =   0.0049875
        k(  153) = (   0.4133333   0.1733333   0.0000000), wk =   0.0049875
        k(  154) = (   0.4116667   0.1766667   0.0000000), wk =   0.0049875
        k(  155) = (   0.4100000   0.1800000   0.0000000), wk =   0.0049875
        k(  156) = (   0.4083333   0.1833333   0.0000000), wk =   0.0049875
        k(  157) = (   0.4066667   0.1866667   0.0000000), wk =   0.0049875
        k(  158) = (   0.4050000   0.1900000   0.0000000), wk =   0.0049875
        k(  159) = (   0.4033333   0.1933333   0.0000000), wk =   0.0049875
        k(  160) = (   0.4016667   0.1966667   0.0000000), wk =   0.0049875
        k(  161) = (   0.4000000   0.2000000   0.0000000), wk =   0.0049875
        k(  162) = (   0.3983333   0.2033333   0.0000000), wk =   0.0049875
        k(  163) = (   0.3966667   0.2066667   0.0000000), wk =   0.0049875
        k(  164) = (   0.3950000   0.2100000   0.0000000), wk =   0.0049875
        k(  165) = (   0.3933333   0.2133333   0.0000000), wk =   0.0049875
        k(  166) = (   0.3916667   0.2166667   0.0000000), wk =   0.0049875
        k(  167) = (   0.3900000   0.2200000   0.0000000), wk =   0.0049875
        k(  168) = (   0.3883333   0.2233333   0.0000000), wk =   0.0049875
        k(  169) = (   0.3866667   0.2266667   0.0000000), wk =   0.0049875
        k(  170) = (   0.3850000   0.2300000   0.0000000), wk =   0.0049875
        k(  171) = (   0.3833333   0.2333333   0.0000000), wk =   0.0049875
        k(  172) = (   0.3816667   0.2366667   0.0000000), wk =   0.0049875
        k(  173) = (   0.3800000   0.2400000   0.0000000), wk =   0.0049875
        k(  174) = (   0.3783333   0.2433333   0.0000000), wk =   0.0049875
        k(  175) = (   0.3766667   0.2466667   0.0000000), wk =   0.0049875
        k(  176) = (   0.3750000   0.2500000   0.0000000), wk =   0.0049875
        k(  177) = (   0.3733333   0.2533333   0.0000000), wk =   0.0049875
        k(  178) = (   0.3716667   0.2566667   0.0000000), wk =   0.0049875
        k(  179) = (   0.3700000   0.2600000   0.0000000), wk =   0.0049875
        k(  180) = (   0.3683333   0.2633333   0.0000000), wk =   0.0049875
        k(  181) = (   0.3666667   0.2666667   0.0000000), wk =   0.0049875
        k(  182) = (   0.3650000   0.2700000   0.0000000), wk =   0.0049875
        k(  183) = (   0.3633333   0.2733333   0.0000000), wk =   0.0049875
        k(  184) = (   0.3616667   0.2766667   0.0000000), wk =   0.0049875
        k(  185) = (   0.3600000   0.2800000   0.0000000), wk =   0.0049875
        k(  186) = (   0.3583333   0.2833333   0.0000000), wk =   0.0049875
        k(  187) = (   0.3566667   0.2866667   0.0000000), wk =   0.0049875
        k(  188) = (   0.3550000   0.2900000   0.0000000), wk =   0.0049875
        k(  189) = (   0.3533333   0.2933333   0.0000000), wk =   0.0049875
        k(  190) = (   0.3516667   0.2966667   0.0000000), wk =   0.0049875
        k(  191) = (   0.3500000   0.3000000   0.0000000), wk =   0.0049875
        k(  192) = (   0.3483333   0.3033333   0.0000000), wk =   0.0049875
        k(  193) = (   0.3466667   0.3066667   0.0000000), wk =   0.0049875
        k(  194) = (   0.3450000   0.3100000   0.0000000), wk =   0.0049875
        k(  195) = (   0.3433333   0.3133333   0.0000000), wk =   0.0049875
        k(  196) = (   0.3416667   0.3166667   0.0000000), wk =   0.0049875
        k(  197) = (   0.3400000   0.3200000   0.0000000), wk =   0.0049875
        k(  198) = (   0.3383333   0.3233333   0.0000000), wk =   0.0049875
        k(  199) = (   0.3366667   0.3266667   0.0000000), wk =   0.0049875
        k(  200) = (   0.3350000   0.3300000   0.0000000), wk =   0.0049875
        k(  201) = (   0.3333333   0.3333333   0.0000000), wk =   0.0049875
        k(  202) = (   0.3300000   0.3300000   0.0000000), wk =   0.0049875
        k(  203) = (   0.3266667   0.3266667   0.0000000), wk =   0.0049875
        k(  204) = (   0.3233333   0.3233333   0.0000000), wk =   0.0049875
        k(  205) = (   0.3200000   0.3200000   0.0000000), wk =   0.0049875
        k(  206) = (   0.3166667   0.3166667   0.0000000), wk =   0.0049875
        k(  207) = (   0.3133333   0.3133333   0.0000000), wk =   0.0049875
        k(  208) = (   0.3100000   0.3100000   0.0000000), wk =   0.0049875
        k(  209) = (   0.3066667   0.3066667   0.0000000), wk =   0.0049875
        k(  210) = (   0.3033333   0.3033333   0.0000000), wk =   0.0049875
        k(  211) = (   0.3000000   0.3000000   0.0000000), wk =   0.0049875
        k(  212) = (   0.2966667   0.2966667   0.0000000), wk =   0.0049875
        k(  213) = (   0.2933333   0.2933333   0.0000000), wk =   0.0049875
        k(  214) = (   0.2900000   0.2900000   0.0000000), wk =   0.0049875
        k(  215) = (   0.2866667   0.2866667   0.0000000), wk =   0.0049875
        k(  216) = (   0.2833333   0.2833333   0.0000000), wk =   0.0049875
        k(  217) = (   0.2800000   0.2800000   0.0000000), wk =   0.0049875
        k(  218) = (   0.2766667   0.2766667   0.0000000), wk =   0.0049875
        k(  219) = (   0.2733333   0.2733333   0.0000000), wk =   0.0049875
        k(  220) = (   0.2700000   0.2700000   0.0000000), wk =   0.0049875
        k(  221) = (   0.2666667   0.2666667   0.0000000), wk =   0.0049875
        k(  222) = (   0.2633333   0.2633333   0.0000000), wk =   0.0049875
        k(  223) = (   0.2600000   0.2600000   0.0000000), wk =   0.0049875
        k(  224) = (   0.2566667   0.2566667   0.0000000), wk =   0.0049875
        k(  225) = (   0.2533333   0.2533333   0.0000000), wk =   0.0049875
        k(  226) = (   0.2500000   0.2500000   0.0000000), wk =   0.0049875
        k(  227) = (   0.2466667   0.2466667   0.0000000), wk =   0.0049875
        k(  228) = (   0.2433333   0.2433333   0.0000000), wk =   0.0049875
        k(  229) = (   0.2400000   0.2400000   0.0000000), wk =   0.0049875
        k(  230) = (   0.2366667   0.2366667   0.0000000), wk =   0.0049875
        k(  231) = (   0.2333333   0.2333333   0.0000000), wk =   0.0049875
        k(  232) = (   0.2300000   0.2300000   0.0000000), wk =   0.0049875
        k(  233) = (   0.2266667   0.2266667   0.0000000), wk =   0.0049875
        k(  234) = (   0.2233333   0.2233333   0.0000000), wk =   0.0049875
        k(  235) = (   0.2200000   0.2200000   0.0000000), wk =   0.0049875
        k(  236) = (   0.2166667   0.2166667   0.0000000), wk =   0.0049875
        k(  237) = (   0.2133333   0.2133333   0.0000000), wk =   0.0049875
        k(  238) = (   0.2100000   0.2100000   0.0000000), wk =   0.0049875
        k(  239) = (   0.2066667   0.2066667   0.0000000), wk =   0.0049875
        k(  240) = (   0.2033333   0.2033333   0.0000000), wk =   0.0049875
        k(  241) = (   0.2000000   0.2000000   0.0000000), wk =   0.0049875
        k(  242) = (   0.1966667   0.1966667   0.0000000), wk =   0.0049875
        k(  243) = (   0.1933333   0.1933333   0.0000000), wk =   0.0049875
        k(  244) = (   0.1900000   0.1900000   0.0000000), wk =   0.0049875
        k(  245) = (   0.1866667   0.1866667   0.0000000), wk =   0.0049875
        k(  246) = (   0.1833333   0.1833333   0.0000000), wk =   0.0049875
        k(  247) = (   0.1800000   0.1800000   0.0000000), wk =   0.0049875
        k(  248) = (   0.1766667   0.1766667   0.0000000), wk =   0.0049875
        k(  249) = (   0.1733333   0.1733333   0.0000000), wk =   0.0049875
        k(  250) = (   0.1700000   0.1700000   0.0000000), wk =   0.0049875
        k(  251) = (   0.1666667   0.1666667   0.0000000), wk =   0.0049875
        k(  252) = (   0.1633333   0.1633333   0.0000000), wk =   0.0049875
        k(  253) = (   0.1600000   0.1600000   0.0000000), wk =   0.0049875
        k(  254) = (   0.1566667   0.1566667   0.0000000), wk =   0.0049875
        k(  255) = (   0.1533333   0.1533333   0.0000000), wk =   0.0049875
        k(  256) = (   0.1500000   0.1500000   0.0000000), wk =   0.0049875
        k(  257) = (   0.1466667   0.1466667   0.0000000), wk =   0.0049875
        k(  258) = (   0.1433333   0.1433333   0.0000000), wk =   0.0049875
        k(  259) = (   0.1400000   0.1400000   0.0000000), wk =   0.0049875
        k(  260) = (   0.1366667   0.1366667   0.0000000), wk =   0.0049875
        k(  261) = (   0.1333333   0.1333333   0.0000000), wk =   0.0049875
        k(  262) = (   0.1300000   0.1300000   0.0000000), wk =   0.0049875
        k(  263) = (   0.1266667   0.1266667   0.0000000), wk =   0.0049875
        k(  264) = (   0.1233333   0.1233333   0.0000000), wk =   0.0049875
        k(  265) = (   0.1200000   0.1200000   0.0000000), wk =   0.0049875
        k(  266) = (   0.1166667   0.1166667   0.0000000), wk =   0.0049875
        k(  267) = (   0.1133333   0.1133333   0.0000000), wk =   0.0049875
        k(  268) = (   0.1100000   0.1100000   0.0000000), wk =   0.0049875
        k(  269) = (   0.1066667   0.1066667   0.0000000), wk =   0.0049875
        k(  270) = (   0.1033333   0.1033333   0.0000000), wk =   0.0049875
        k(  271) = (   0.1000000   0.1000000   0.0000000), wk =   0.0049875
        k(  272) = (   0.0966667   0.0966667   0.0000000), wk =   0.0049875
        k(  273) = (   0.0933333   0.0933333   0.0000000), wk =   0.0049875
        k(  274) = (   0.0900000   0.0900000   0.0000000), wk =   0.0049875
        k(  275) = (   0.0866667   0.0866667   0.0000000), wk =   0.0049875
        k(  276) = (   0.0833333   0.0833333   0.0000000), wk =   0.0049875
        k(  277) = (   0.0800000   0.0800000   0.0000000), wk =   0.0049875
        k(  278) = (   0.0766667   0.0766667   0.0000000), wk =   0.0049875
        k(  279) = (   0.0733333   0.0733333   0.0000000), wk =   0.0049875
        k(  280) = (   0.0700000   0.0700000   0.0000000), wk =   0.0049875
        k(  281) = (   0.0666667   0.0666667   0.0000000), wk =   0.0049875
        k(  282) = (   0.0633333   0.0633333   0.0000000), wk =   0.0049875
        k(  283) = (   0.0600000   0.0600000   0.0000000), wk =   0.0049875
        k(  284) = (   0.0566667   0.0566667   0.0000000), wk =   0.0049875
        k(  285) = (   0.0533333   0.0533333   0.0000000), wk =   0.0049875
        k(  286) = (   0.0500000   0.0500000   0.0000000), wk =   0.0049875
        k(  287) = (   0.0466667   0.0466667   0.0000000), wk =   0.0049875
        k(  288) = (   0.0433333   0.0433333   0.0000000), wk =   0.0049875
        k(  289) = (   0.0400000   0.0400000   0.0000000), wk =   0.0049875
        k(  290) = (   0.0366667   0.0366667   0.0000000), wk =   0.0049875
        k(  291) = (   0.0333333   0.0333333   0.0000000), wk =   0.0049875
        k(  292) = (   0.0300000   0.0300000   0.0000000), wk =   0.0049875
        k(  293) = (   0.0266667   0.0266667   0.0000000), wk =   0.0049875
        k(  294) = (   0.0233333   0.0233333   0.0000000), wk =   0.0049875
        k(  295) = (   0.0200000   0.0200000   0.0000000), wk =   0.0049875
        k(  296) = (   0.0166667   0.0166667   0.0000000), wk =   0.0049875
        k(  297) = (   0.0133333   0.0133333   0.0000000), wk =   0.0049875
        k(  298) = (   0.0100000   0.0100000   0.0000000), wk =   0.0049875
        k(  299) = (   0.0066667   0.0066667   0.0000000), wk =   0.0049875
        k(  300) = (   0.0033333   0.0033333   0.0000000), wk =   0.0049875
        k(  301) = (   0.0000000   0.0000000   0.0000000), wk =   0.0049875
        k(  302) = (  -0.0033333  -0.0033333   0.0000000), wk =   0.0049875
        k(  303) = (  -0.0066667  -0.0066667   0.0000000), wk =   0.0049875
        k(  304) = (  -0.0100000  -0.0100000   0.0000000), wk =   0.0049875
        k(  305) = (  -0.0133333  -0.0133333   0.0000000), wk =   0.0049875
        k(  306) = (  -0.0166667  -0.0166667   0.0000000), wk =   0.0049875
        k(  307) = (  -0.0200000  -0.0200000   0.0000000), wk =   0.0049875
        k(  308) = (  -0.0233333  -0.0233333   0.0000000), wk =   0.0049875
        k(  309) = (  -0.0266667  -0.0266667   0.0000000), wk =   0.0049875
        k(  310) = (  -0.0300000  -0.0300000   0.0000000), wk =   0.0049875
        k(  311) = (  -0.0333333  -0.0333333   0.0000000), wk =   0.0049875
        k(  312) = (  -0.0366667  -0.0366667   0.0000000), wk =   0.0049875
        k(  313) = (  -0.0400000  -0.0400000   0.0000000), wk =   0.0049875
        k(  314) = (  -0.0433333  -0.0433333   0.0000000), wk =   0.0049875
        k(  315) = (  -0.0466667  -0.0466667   0.0000000), wk =   0.0049875
        k(  316) = (  -0.0500000  -0.0500000   0.0000000), wk =   0.0049875
        k(  317) = (  -0.0533333  -0.0533333   0.0000000), wk =   0.0049875
        k(  318) = (  -0.0566667  -0.0566667   0.0000000), wk =   0.0049875
        k(  319) = (  -0.0600000  -0.0600000   0.0000000), wk =   0.0049875
        k(  320) = (  -0.0633333  -0.0633333   0.0000000), wk =   0.0049875
        k(  321) = (  -0.0666667  -0.0666667   0.0000000), wk =   0.0049875
        k(  322) = (  -0.0700000  -0.0700000   0.0000000), wk =   0.0049875
        k(  323) = (  -0.0733333  -0.0733333   0.0000000), wk =   0.0049875
        k(  324) = (  -0.0766667  -0.0766667   0.0000000), wk =   0.0049875
        k(  325) = (  -0.0800000  -0.0800000   0.0000000), wk =   0.0049875
        k(  326) = (  -0.0833333  -0.0833333   0.0000000), wk =   0.0049875
        k(  327) = (  -0.0866667  -0.0866667   0.0000000), wk =   0.0049875
        k(  328) = (  -0.0900000  -0.0900000   0.0000000), wk =   0.0049875
        k(  329) = (  -0.0933333  -0.0933333   0.0000000), wk =   0.0049875
        k(  330) = (  -0.0966667  -0.0966667   0.0000000), wk =   0.0049875
        k(  331) = (  -0.1000000  -0.1000000   0.0000000), wk =   0.0049875
        k(  332) = (  -0.1033333  -0.1033333   0.0000000), wk =   0.0049875
        k(  333) = (  -0.1066667  -0.1066667   0.0000000), wk =   0.0049875
        k(  334) = (  -0.1100000  -0.1100000   0.0000000), wk =   0.0049875
        k(  335) = (  -0.1133333  -0.1133333   0.0000000), wk =   0.0049875
        k(  336) = (  -0.1166667  -0.1166667   0.0000000), wk =   0.0049875
        k(  337) = (  -0.1200000  -0.1200000   0.0000000), wk =   0.0049875
        k(  338) = (  -0.1233333  -0.1233333   0.0000000), wk =   0.0049875
        k(  339) = (  -0.1266667  -0.1266667   0.0000000), wk =   0.0049875
        k(  340) = (  -0.1300000  -0.1300000   0.0000000), wk =   0.0049875
        k(  341) = (  -0.1333333  -0.1333333   0.0000000), wk =   0.0049875
        k(  342) = (  -0.1366667  -0.1366667   0.0000000), wk =   0.0049875
        k(  343) = (  -0.1400000  -0.1400000   0.0000000), wk =   0.0049875
        k(  344) = (  -0.1433333  -0.1433333   0.0000000), wk =   0.0049875
        k(  345) = (  -0.1466667  -0.1466667   0.0000000), wk =   0.0049875
        k(  346) = (  -0.1500000  -0.1500000   0.0000000), wk =   0.0049875
        k(  347) = (  -0.1533333  -0.1533333   0.0000000), wk =   0.0049875
        k(  348) = (  -0.1566667  -0.1566667   0.0000000), wk =   0.0049875
        k(  349) = (  -0.1600000  -0.1600000   0.0000000), wk =   0.0049875
        k(  350) = (  -0.1633333  -0.1633333   0.0000000), wk =   0.0049875
        k(  351) = (  -0.1666667  -0.1666667   0.0000000), wk =   0.0049875
        k(  352) = (  -0.1700000  -0.1700000   0.0000000), wk =   0.0049875
        k(  353) = (  -0.1733333  -0.1733333   0.0000000), wk =   0.0049875
        k(  354) = (  -0.1766667  -0.1766667   0.0000000), wk =   0.0049875
        k(  355) = (  -0.1800000  -0.1800000   0.0000000), wk =   0.0049875
        k(  356) = (  -0.1833333  -0.1833333   0.0000000), wk =   0.0049875
        k(  357) = (  -0.1866667  -0.1866667   0.0000000), wk =   0.0049875
        k(  358) = (  -0.1900000  -0.1900000   0.0000000), wk =   0.0049875
        k(  359) = (  -0.1933333  -0.1933333   0.0000000), wk =   0.0049875
        k(  360) = (  -0.1966667  -0.1966667   0.0000000), wk =   0.0049875
        k(  361) = (  -0.2000000  -0.2000000   0.0000000), wk =   0.0049875
        k(  362) = (  -0.2033333  -0.2033333   0.0000000), wk =   0.0049875
        k(  363) = (  -0.2066667  -0.2066667   0.0000000), wk =   0.0049875
        k(  364) = (  -0.2100000  -0.2100000   0.0000000), wk =   0.0049875
        k(  365) = (  -0.2133333  -0.2133333   0.0000000), wk =   0.0049875
        k(  366) = (  -0.2166667  -0.2166667   0.0000000), wk =   0.0049875
        k(  367) = (  -0.2200000  -0.2200000   0.0000000), wk =   0.0049875
        k(  368) = (  -0.2233333  -0.2233333   0.0000000), wk =   0.0049875
        k(  369) = (  -0.2266667  -0.2266667   0.0000000), wk =   0.0049875
        k(  370) = (  -0.2300000  -0.2300000   0.0000000), wk =   0.0049875
        k(  371) = (  -0.2333333  -0.2333333   0.0000000), wk =   0.0049875
        k(  372) = (  -0.2366667  -0.2366667   0.0000000), wk =   0.0049875
        k(  373) = (  -0.2400000  -0.2400000   0.0000000), wk =   0.0049875
        k(  374) = (  -0.2433333  -0.2433333   0.0000000), wk =   0.0049875
        k(  375) = (  -0.2466667  -0.2466667   0.0000000), wk =   0.0049875
        k(  376) = (  -0.2500000  -0.2500000   0.0000000), wk =   0.0049875
        k(  377) = (  -0.2533333  -0.2533333   0.0000000), wk =   0.0049875
        k(  378) = (  -0.2566667  -0.2566667   0.0000000), wk =   0.0049875
        k(  379) = (  -0.2600000  -0.2600000   0.0000000), wk =   0.0049875
        k(  380) = (  -0.2633333  -0.2633333   0.0000000), wk =   0.0049875
        k(  381) = (  -0.2666667  -0.2666667   0.0000000), wk =   0.0049875
        k(  382) = (  -0.2700000  -0.2700000   0.0000000), wk =   0.0049875
        k(  383) = (  -0.2733333  -0.2733333   0.0000000), wk =   0.0049875
        k(  384) = (  -0.2766667  -0.2766667   0.0000000), wk =   0.0049875
        k(  385) = (  -0.2800000  -0.2800000   0.0000000), wk =   0.0049875
        k(  386) = (  -0.2833333  -0.2833333   0.0000000), wk =   0.0049875
        k(  387) = (  -0.2866667  -0.2866667   0.0000000), wk =   0.0049875
        k(  388) = (  -0.2900000  -0.2900000   0.0000000), wk =   0.0049875
        k(  389) = (  -0.2933333  -0.2933333   0.0000000), wk =   0.0049875
        k(  390) = (  -0.2966667  -0.2966667   0.0000000), wk =   0.0049875
        k(  391) = (  -0.3000000  -0.3000000   0.0000000), wk =   0.0049875
        k(  392) = (  -0.3033333  -0.3033333   0.0000000), wk =   0.0049875
        k(  393) = (  -0.3066667  -0.3066667   0.0000000), wk =   0.0049875
        k(  394) = (  -0.3100000  -0.3100000   0.0000000), wk =   0.0049875
        k(  395) = (  -0.3133333  -0.3133333   0.0000000), wk =   0.0049875
        k(  396) = (  -0.3166667  -0.3166667   0.0000000), wk =   0.0049875
        k(  397) = (  -0.3200000  -0.3200000   0.0000000), wk =   0.0049875
        k(  398) = (  -0.3233333  -0.3233333   0.0000000), wk =   0.0049875
        k(  399) = (  -0.3266667  -0.3266667   0.0000000), wk =   0.0049875
        k(  400) = (  -0.3300000  -0.3300000   0.0000000), wk =   0.0049875
        k(  401) = (  -0.3333333  -0.3333333   0.0000000), wk =   0.0049875

     Dense  grid:    58173 G-vectors     FFT dimensions: (  25,  25, 216)

     Dynamical RAM for                 wfc:       0.03 MB

     Dynamical RAM for     wfc (w. buffer):       0.03 MB

     Dynamical RAM for           str. fact:       0.03 MB

     Dynamical RAM for           local pot:       0.00 MB

     Dynamical RAM for          nlocal pot:       0.03 MB

     Dynamical RAM for                qrad:       0.77 MB

     Dynamical RAM for          rho,v,vnew:       0.10 MB

     Dynamical RAM for           G-vectors:       0.06 MB

     Dynamical RAM for          h,s,v(r/c):       0.29 MB

     Dynamical RAM for          <psi|beta>:       0.00 MB

     Dynamical RAM for                 psi:       0.14 MB

     Dynamical RAM for                hpsi:       0.14 MB

     Dynamical RAM for      wfcinit/wfcrot:       0.08 MB

     Estimated static dynamical RAM per process >       1.15 MB

     Estimated max dynamical RAM per process >       1.73 MB

     Estimated total dynamical RAM >     110.41 MB

     The potential is recalculated from file :
     ./bn.save/charge-density

     Starting wfcs are    8 randomized atomic wfcs +   12 random wfcs

     Band Structure Calculation
     Davidson diagonalization with overlap

     Computing kpt #:     1  of   401
     total cpu time spent up to now is        0.9 secs

     Computing kpt #:     2  of   401
     total cpu time spent up to now is        0.9 secs

     Computing kpt #:     3  of   401
     total cpu time spent up to now is        1.0 secs

     Computing kpt #:     4  of   401
     total cpu time spent up to now is        1.1 secs

     Computing kpt #:     5  of   401
     total cpu time spent up to now is        1.2 secs

     Computing kpt #:     6  of   401
     total cpu time spent up to now is        1.3 secs

     Computing kpt #:     7  of   401
     total cpu time spent up to now is        1.3 secs

     Computing kpt #:     8  of   401
     total cpu time spent up to now is        1.4 secs

     Computing kpt #:     9  of   401
     total cpu time spent up to now is        1.5 secs

     Computing kpt #:    10  of   401
     total cpu time spent up to now is        1.5 secs

     Computing kpt #:    11  of   401
     total cpu time spent up to now is        1.6 secs

     Computing kpt #:    12  of   401
     total cpu time spent up to now is        1.7 secs

     Computing kpt #:    13  of   401
     total cpu time spent up to now is        1.8 secs

     Computing kpt #:    14  of   401
     total cpu time spent up to now is        1.8 secs

     Computing kpt #:    15  of   401
     total cpu time spent up to now is        1.9 secs

     Computing kpt #:    16  of   401
     total cpu time spent up to now is        2.0 secs

     Computing kpt #:    17  of   401
     total cpu time spent up to now is        2.0 secs

     Computing kpt #:    18  of   401
     total cpu time spent up to now is        2.1 secs

     Computing kpt #:    19  of   401
     total cpu time spent up to now is        2.2 secs

     Computing kpt #:    20  of   401
     total cpu time spent up to now is        2.2 secs

     Computing kpt #:    21  of   401
     total cpu time spent up to now is        2.3 secs

     Computing kpt #:    22  of   401
     total cpu time spent up to now is        2.4 secs

     Computing kpt #:    23  of   401
     total cpu time spent up to now is        2.4 secs

     Computing kpt #:    24  of   401
     total cpu time spent up to now is        2.5 secs

     Computing kpt #:    25  of   401
     total cpu time spent up to now is        2.6 secs

     Computing kpt #:    26  of   401
     total cpu time spent up to now is        2.6 secs

     Computing kpt #:    27  of   401
     total cpu time spent up to now is        2.7 secs

     Computing kpt #:    28  of   401
     total cpu time spent up to now is        2.8 secs

     Computing kpt #:    29  of   401
     total cpu time spent up to now is        2.8 secs

     Computing kpt #:    30  of   401
     total cpu time spent up to now is        2.9 secs

     Computing kpt #:    31  of   401
     total cpu time spent up to now is        3.0 secs

     Computing kpt #:    32  of   401
     total cpu time spent up to now is        3.0 secs

     Computing kpt #:    33  of   401
     total cpu time spent up to now is        3.1 secs

     Computing kpt #:    34  of   401
     total cpu time spent up to now is        3.2 secs

     Computing kpt #:    35  of   401
     total cpu time spent up to now is        3.3 secs

     Computing kpt #:    36  of   401
     total cpu time spent up to now is        3.3 secs

     Computing kpt #:    37  of   401
     total cpu time spent up to now is        3.4 secs

     Computing kpt #:    38  of   401
     total cpu time spent up to now is        3.5 secs

     Computing kpt #:    39  of   401
     total cpu time spent up to now is        3.5 secs

     Computing kpt #:    40  of   401
     total cpu time spent up to now is        3.6 secs

     Computing kpt #:    41  of   401
     total cpu time spent up to now is        3.7 secs

     Computing kpt #:    42  of   401
     total cpu time spent up to now is        3.8 secs

     Computing kpt #:    43  of   401
     total cpu time spent up to now is        3.8 secs

     Computing kpt #:    44  of   401
     total cpu time spent up to now is        3.9 secs

     Computing kpt #:    45  of   401
     total cpu time spent up to now is        4.0 secs

     Computing kpt #:    46  of   401
     total cpu time spent up to now is        4.1 secs

     Computing kpt #:    47  of   401
     total cpu time spent up to now is        4.2 secs

     Computing kpt #:    48  of   401
     total cpu time spent up to now is        4.2 secs

     Computing kpt #:    49  of   401
     total cpu time spent up to now is        4.3 secs

     Computing kpt #:    50  of   401
     total cpu time spent up to now is        4.4 secs

     Computing kpt #:    51  of   401
     total cpu time spent up to now is        4.5 secs

     Computing kpt #:    52  of   401
     total cpu time spent up to now is        4.5 secs

     Computing kpt #:    53  of   401
     total cpu time spent up to now is        4.6 secs

     Computing kpt #:    54  of   401
     total cpu time spent up to now is        4.7 secs

     Computing kpt #:    55  of   401
     total cpu time spent up to now is        4.7 secs

     Computing kpt #:    56  of   401
     total cpu time spent up to now is        4.8 secs

     Computing kpt #:    57  of   401
     total cpu time spent up to now is        4.9 secs

     Computing kpt #:    58  of   401
     total cpu time spent up to now is        5.0 secs

     Computing kpt #:    59  of   401
     total cpu time spent up to now is        5.1 secs

     Computing kpt #:    60  of   401
     total cpu time spent up to now is        5.1 secs

     Computing kpt #:    61  of   401
     total cpu time spent up to now is        5.2 secs

     Computing kpt #:    62  of   401
     total cpu time spent up to now is        5.3 secs

     Computing kpt #:    63  of   401
     total cpu time spent up to now is        5.4 secs

     Computing kpt #:    64  of   401
     total cpu time spent up to now is        5.5 secs

     Computing kpt #:    65  of   401
     total cpu time spent up to now is        5.6 secs

     Computing kpt #:    66  of   401
     total cpu time spent up to now is        5.7 secs

     Computing kpt #:    67  of   401
     total cpu time spent up to now is        5.7 secs

     Computing kpt #:    68  of   401
     total cpu time spent up to now is        5.8 secs

     Computing kpt #:    69  of   401
     total cpu time spent up to now is        5.9 secs

     Computing kpt #:    70  of   401
     total cpu time spent up to now is        6.0 secs

     Computing kpt #:    71  of   401
     total cpu time spent up to now is        6.1 secs

     Computing kpt #:    72  of   401
     total cpu time spent up to now is        6.2 secs

     Computing kpt #:    73  of   401
     total cpu time spent up to now is        6.3 secs

     Computing kpt #:    74  of   401
     total cpu time spent up to now is        6.4 secs

     Computing kpt #:    75  of   401
     total cpu time spent up to now is        6.5 secs

     Computing kpt #:    76  of   401
     total cpu time spent up to now is        6.6 secs

     Computing kpt #:    77  of   401
     total cpu time spent up to now is        6.7 secs

     Computing kpt #:    78  of   401
     total cpu time spent up to now is        6.8 secs

     Computing kpt #:    79  of   401
     total cpu time spent up to now is        6.9 secs

     Computing kpt #:    80  of   401
     total cpu time spent up to now is        6.9 secs

     Computing kpt #:    81  of   401
     total cpu time spent up to now is        7.0 secs

     Computing kpt #:    82  of   401
     total cpu time spent up to now is        7.1 secs

     Computing kpt #:    83  of   401
     total cpu time spent up to now is        7.2 secs

     Computing kpt #:    84  of   401
     total cpu time spent up to now is        7.3 secs

     Computing kpt #:    85  of   401
     total cpu time spent up to now is        7.4 secs

     Computing kpt #:    86  of   401
     total cpu time spent up to now is        7.4 secs

     Computing kpt #:    87  of   401
     total cpu time spent up to now is        7.5 secs

     Computing kpt #:    88  of   401
     total cpu time spent up to now is        7.6 secs

     Computing kpt #:    89  of   401
     total cpu time spent up to now is        7.7 secs

     Computing kpt #:    90  of   401
[...]
    11.9602  12.9092  14.4613  16.8523

          k =-0.1167-0.2021 0.0000 (  7269 PWs)   bands (ev):

   -21.0331  -8.6308  -8.2486  -7.1877   1.7759   2.7246   3.2044   3.9580
     4.4652   5.5056   6.5845   6.9079   7.3161   8.8975   9.4192  10.0874
    12.0744  12.9614  14.5347  16.8237

          k =-0.1200-0.2078 0.0000 (  7275 PWs)   bands (ev):

   -20.9901  -8.5720  -8.3576  -7.2600   1.8494   2.7870   3.2799   4.0186
     4.5398   5.5044   6.6558   6.9114   7.3477   8.9555   9.4725  10.1898
    12.1921  13.0145  14.6099  16.7818

          k =-0.1233-0.2136 0.0000 (  7279 PWs)   bands (ev):

   -20.9460  -8.5117  -8.4669  -7.3332   1.9248   2.8497   3.3575   4.0790
     4.6164   5.4982   6.7289   6.9231   7.3813   9.0138   9.5288  10.2915
    12.3130  13.0683  14.6868  16.7258

          k =-0.1267-0.2194 0.0000 (  7281 PWs)   bands (ev):

   -20.9010  -8.5764  -8.4499  -7.4074   2.0022   2.9125   3.4373   4.1387
     4.6951   5.4877   6.8037   6.9432   7.4168   9.0727   9.5879  10.3924
    12.4370  13.1224  14.7654  16.6557

          k =-0.1300-0.2252 0.0000 (  7275 PWs)   bands (ev):

   -20.8549  -8.6860  -8.3867  -7.4823   2.0816   2.9747   3.5191   4.1970
     4.7758   5.4743   6.8803   6.9716   7.4544   9.1320   9.6497  10.4926
    12.5639  13.1767  14.8457  16.5727

          k =-0.1333-0.2309 0.0000 (  7271 PWs)   bands (ev):

   -20.8078  -8.7956  -8.3221  -7.5580   2.1629   3.0359   3.6031   4.2532
     4.8586   5.4600   6.9587   7.0078   7.4940   9.1918   9.7141  10.5922
    12.6933  13.2306  14.9276  16.4788

          k =-0.1367-0.2367 0.0000 (  7271 PWs)   bands (ev):

   -20.7597  -8.9051  -8.2561  -7.6344   2.2462   3.0954   3.6892   4.3065
     4.9435   5.4469   7.0388   7.0514   7.5356   9.2521   9.7808  10.6913
    12.8249  13.2838  15.0110  16.3763

          k =-0.1400-0.2425 0.0000 (  7265 PWs)   bands (ev):

   -20.7107  -9.0144  -8.1888  -7.7114   2.3314   3.1521   3.7774   4.3560
     5.0304   5.4376   7.1018   7.1205   7.5791   9.3127   9.8499  10.7899
    12.9585  13.3355  15.0958  16.2681

          k =-0.1433-0.2483 0.0000 (  7257 PWs)   bands (ev):

   -20.6608  -9.1234  -8.1202  -7.7891   2.4185   3.2051   3.8678   4.4012
     5.1193   5.4346   7.1584   7.2038   7.6247   9.3738   9.9211  10.8883
    13.0935  13.3850  15.1820  16.1569

          k =-0.1467-0.2540 0.0000 (  7251 PWs)   bands (ev):

   -20.6100  -9.2321  -8.0503  -7.8672   2.5076   3.2528   3.9603   4.4418
     5.2103   5.4402   7.2205   7.2887   7.6722   9.4353   9.9943  10.9865
    13.2298  13.4315  15.2693  16.0456

          k =-0.1500-0.2598 0.0000 (  7255 PWs)   bands (ev):

   -20.5584  -9.3403  -7.9791  -7.9458   2.5987   3.2936   4.0548   4.4784
     5.3033   5.4563   7.2877   7.3750   7.7218   9.4972  10.0693  11.0848
    13.3668  13.4738  15.3577  15.9368

          k =-0.1533-0.2656 0.0000 (  7258 PWs)   bands (ev):

   -20.5059  -9.4480  -8.0248  -7.9067   2.6916   3.3257   4.1515   4.5122
     5.3983   5.4838   7.3594   7.4627   7.7734   9.5594  10.1460  11.1831
    13.5042  13.5107  15.4469  15.8332

          k =-0.1567-0.2714 0.0000 (  7258 PWs)   bands (ev):

   -20.4525  -9.5551  -8.1041  -7.8331   2.7865   3.3473   4.2503   4.5455
     5.4953   5.5231   7.4353   7.5515   7.8272   9.6221  10.2241  11.2818
    13.5407  13.6417  15.5367  15.7376

          k =-0.1600-0.2771 0.0000 (  7250 PWs)   bands (ev):

   -20.3984  -9.6614  -8.1836  -7.7583   2.8834   3.3569   4.3513   4.5811
     5.5733   5.5944   7.5149   7.6412   7.8834   9.6851  10.3035  11.3809
    13.5622  13.7789  15.6267  15.6523

          k =-0.1633-0.2829 0.0000 (  7238 PWs)   bands (ev):

   -20.3436  -9.7670  -8.2634  -7.6823   2.9821   3.3532   4.4543   4.6214
     5.6336   5.6955   7.5980   7.7314   7.9422   9.7485  10.3839  11.4807
    13.5737  13.9153  15.5800  15.7166

          k =-0.1667-0.2887 0.0000 (  7236 PWs)   bands (ev):

   -20.2880  -9.8717  -8.3434  -7.6054   3.0827   3.3359   4.5595   4.6684
     5.7027   5.7986   7.6843   7.8216   8.0040   9.8123  10.4651  11.5811
    13.5739  14.0504  15.5227  15.8060

          k =-0.1700-0.2944 0.0000 (  7240 PWs)   bands (ev):

   -20.2318  -9.9756  -8.4235  -7.5273   3.1853   3.3055   4.6667   4.7232
     5.7793   5.9037   7.7734   7.9108   8.0698   9.8765  10.5466  11.6824
    13.5618  14.1837  15.4820  15.8942

          k =-0.1733-0.3002 0.0000 (  7246 PWs)   bands (ev):

   -20.1749 -10.0784  -8.5037  -7.4483   3.2629   3.2898   4.7761   4.7860
     5.8624   6.0108   7.8652   7.9977   8.1406   9.9411  10.6281  11.7846
    13.5376  14.3148  15.4586  15.9807

          k =-0.1767-0.3060 0.0000 (  7250 PWs)   bands (ev):

   -20.1174 -10.1801  -8.5838  -7.3683   3.2097   3.3961   4.8566   4.8876
     5.9511   6.1199   7.9594   8.0809   8.2178  10.0063  10.7092  11.8879
    13.5022  14.4430  15.4524  16.0647

          k =-0.1800-0.3118 0.0000 (  7262 PWs)   bands (ev):

   -20.0594 -10.2807  -8.6640  -7.2875   3.1474   3.5043   4.9344   5.0012
     6.0447   6.2309   8.0559   8.1596   8.3019  10.0720  10.7892  11.9923
    13.4572  14.5677  15.4624  16.1453

          k =-0.1833-0.3175 0.0000 (  7258 PWs)   bands (ev):

   -20.0008 -10.3800  -8.7441  -7.2057   3.0774   3.6144   5.0187   5.1169
     6.1426   6.3440   8.1545   8.2343   8.3924  10.1384  10.8674  12.0979
    13.4050  14.6879  15.4871  16.2216

          k =-0.1867-0.3233 0.0000 (  7262 PWs)   bands (ev):

   -19.9418 -10.4781  -8.8240  -7.1232   3.0013   3.7264   5.1086   5.2348
     6.2442   6.4590   8.2549   8.3061   8.4879  10.2055  10.9431  12.2049
    13.3487  14.8026  15.5247  16.2925

          k =-0.1900-0.3291 0.0000 (  7262 PWs)   bands (ev):

   -19.8823 -10.5747  -8.9038  -7.0399   2.9200   3.8402   5.2036   5.3547
     6.3492   6.5759   8.3569   8.3763   8.5871  10.2734  11.0152  12.3132
    13.2911  14.9105  15.5731  16.3570

          k =-0.1933-0.3349 0.0000 (  7258 PWs)   bands (ev):

   -19.8225 -10.6699  -8.9833  -6.9559   2.8348   3.9558   5.3030   5.4768
     6.4573   6.6948   8.4455   8.4603   8.6889  10.3423  11.0824  12.4230
    13.2355  15.0099  15.6305  16.4144

          k =-0.1967-0.3406 0.0000 (  7266 PWs)   bands (ev):

   -19.7624 -10.7635  -9.0626  -6.8713   2.7463   4.0732   5.4064   5.6009
     6.5683   6.8155   8.5142   8.5649   8.7927  10.4123  11.1436  12.5342
    13.1850  15.0986  15.6949  16.4643

          k =-0.2000-0.3464 0.0000 (  7256 PWs)   bands (ev):

   -19.7021 -10.8555  -9.1416  -6.7862   2.6554   4.1925   5.5132   5.7272
     6.6818   6.9382   8.5826   8.6703   8.8981  10.4835  11.1973  12.6468
    13.1425  15.1744  15.7648  16.5074

          k =-0.2033-0.3522 0.0000 (  7258 PWs)   bands (ev):

   -19.6415 -10.9458  -9.2202  -6.7006   2.5626   4.3135   5.6232   5.8555
     6.7977   7.0628   8.6508   8.7763   9.0046  10.5562  11.2421  12.7609
    13.1109  15.2340  15.8383  16.5450

          k =-0.2067-0.3580 0.0000 (  7254 PWs)   bands (ev):

   -19.5809 -11.0342  -9.2985  -6.6146   2.4685   4.4363   5.7360   5.9860
     6.9158   7.1891   8.7187   8.8825   9.1121  10.6306  11.2771  12.8765
    13.0926  15.2747  15.9135  16.5794

          k =-0.2100-0.3637 0.0000 (  7254 PWs)   bands (ev):

   -19.5202 -11.1209  -9.3763  -6.5284   2.3734   4.5609   5.8512   6.1185
     7.0359   7.3173   8.7863   8.9883   9.2203  10.7068  11.3016  12.9936
    13.0892  15.2939  15.9880  16.6128

          k =-0.2133-0.3695 0.0000 (  7246 PWs)   bands (ev):

   -19.4595 -11.2055  -9.4537  -6.4418   2.2779   4.6872   5.9688   6.2532
     7.1579   7.4473   8.8535   9.0932   9.3290  10.7850  11.3161  13.1019
    13.1121  15.2905  16.0586  16.6453

          k =-0.2167-0.3753 0.0000 (  7242 PWs)   bands (ev):

   -19.3989 -11.2881  -9.5306  -6.3552   2.1822   4.8151   6.0882   6.3899
     7.2816   7.5790   8.9201   9.1965   9.4380  10.8655  11.3218  13.1305
    13.2320  15.2647  16.1203  16.6637

          k =-0.2200-0.3811 0.0000 (  7242 PWs)   bands (ev):

   -19.3385 -11.3686  -9.6070  -6.2686   2.0866   4.9448   6.2094   6.5288
     7.4068   7.7123   8.9859   9.2975   9.5472  10.9486  11.3208  13.1744
    13.3531  15.2181  16.1647  16.6001

          k =-0.2233-0.3868 0.0000 (  7246 PWs)   bands (ev):

   -19.2784 -11.4468  -9.6829  -6.1820   1.9914   5.0760   6.3320   6.6697
     7.5332   7.8473   9.0509   9.3951   9.6563  11.0343  11.3161  13.2321
    13.4755  15.1536  16.1793  16.4704

          k =-0.2267-0.3926 0.0000 (  7250 PWs)   bands (ev):

   -19.2186 -11.5228  -9.7581  -6.0956   1.8969   5.2089   6.4557   6.8127
     7.6607   7.9837   9.1149   9.4883   9.7653  11.1231  11.3108  13.3020
    13.5989  15.0745  16.1513  16.3307

          k =-0.2300-0.3984 0.0000 (  7238 PWs)   bands (ev):

   -19.1593 -11.5962  -9.8326  -6.0096   1.8032   5.3433   6.5801   6.9578
     7.7889   8.1215   9.1779   9.5758   9.8740  11.2149  11.3086  13.3822
    13.7232  14.9840  16.0793  16.1902

          k =-0.2333-0.4041 0.0000 (  7244 PWs)   bands (ev):

   -19.1006 -11.6672  -9.9066  -5.9240   1.7107   5.4792   6.7049   7.1049
     7.9176   8.2606   9.2395   9.6566   9.9822  11.3100  11.3129  13.4711
    13.8482  14.8847  15.9756  16.0507

          k =-0.2367-0.4099 0.0000 (  7240 PWs)   bands (ev):

   -19.0424 -11.7355  -9.9798  -5.8389   1.6195   5.6166   6.8296   7.2541
     8.0464   8.4006   9.3000   9.7298  10.0899  11.3268  11.4086  13.5669
    13.9734  14.7791  15.8540  15.9130

          k =-0.2400-0.4157 0.0000 (  7248 PWs)   bands (ev):

   -18.9851 -11.8012 -10.0523  -5.7546   1.5297   5.7554   6.9537   7.4053
     8.1748   8.5413   9.3593   9.7949  10.1968  11.3529  11.5106  13.6681
    14.0984  14.6692  15.7233  15.7774

          k =-0.2433-0.4215 0.0000 (  7236 PWs)   bands (ev):

   -18.9286 -11.8639 -10.1240  -5.6712   1.4417   5.8955   7.0764   7.5586
     8.3023   8.6822   9.4179   9.8524  10.3030  11.3929  11.6161  13.7732
    14.2220  14.5572  15.5887  15.6443

          k =-0.2467-0.4272 0.0000 (  7244 PWs)   bands (ev):

   -18.8730 -11.9238 -10.1949  -5.5887   1.3555   6.0369   7.1969   7.7139
     8.4284   8.8226   9.4760   9.9037  10.4082  11.4476  11.7251  13.8804
    14.3389  14.4488  15.4531  15.5144

          k =-0.2500-0.4330 0.0000 (  7236 PWs)   bands (ev):

   -18.8186 -11.9807 -10.2649  -5.5074   1.2714   6.1794   7.3141   7.8711
     8.5525   8.9614   9.5347   9.9512  10.5124  11.5168  11.8375  13.9878
    14.3185  14.4740  15.3188  15.3888

          k =-0.2533-0.4388 0.0000 (  7232 PWs)   bands (ev):

   -18.7653 -12.0344 -10.3340  -5.4275   1.1895   6.3231   7.4269   8.0303
     8.6741   9.0967   9.5956   9.9981  10.6154  11.5994  11.9530  14.0926
    14.2078  14.5838  15.1879  15.2698

          k =-0.2567-0.4446 0.0000 (  7224 PWs)   bands (ev):

   -18.7134 -12.0850 -10.4022  -5.3491   1.1100   6.4676   7.5338   8.1915
     8.7927   9.2255   9.6617  10.0480  10.7171  11.6941  12.0715  14.0960
    14.1903  14.6818  15.0635  15.1640

          k =-0.2600-0.4503 0.0000 (  7224 PWs)   bands (ev):

   -18.6629 -12.1322 -10.4695  -5.2724   1.0330   6.6130   7.6332   8.3545
     8.9085   9.3434   9.7371  10.1045  10.8171  11.7992  12.1925  13.9862
    14.2731  14.7439  14.9508  15.0905

          k =-0.2633-0.4561 0.0000 (  7222 PWs)   bands (ev):

   -18.6140 -12.1760 -10.5357  -5.1976   0.9588   6.7590   7.7233   8.5192
     9.0219   9.4452   9.8269  10.1704  10.9154  11.9131  12.3156  13.8800
    14.3268  14.7327  14.8591  15.0787

          k =-0.2667-0.4619 0.0000 (  7220 PWs)   bands (ev):

   -18.5667 -12.2164 -10.6009  -5.1249   0.8875   6.9055   7.8025   8.6856
     9.1341   9.5282   9.9337  10.2479  11.0115  12.0341  12.4401  13.7786
    14.3322  14.6573  14.7990  15.0741

          k =-0.2700-0.4677 0.0000 (  7228 PWs)   bands (ev):

   -18.5212 -12.2532 -10.6649  -5.0544   0.8192   7.0522   7.8694   8.8533
     9.2468   9.5943  10.0555  10.3380  11.1051  12.1610  12.5651  13.6834
    14.2834  14.5562  14.7618  14.9538

          k =-0.2733-0.4734 0.0000 (  7224 PWs)   bands (ev):

   -18.4776 -12.2865 -10.7277  -4.9865   0.7541   7.1989   7.9233   9.0220
     9.3618   9.6481  10.1877  10.4405  11.1958  12.2922  12.6890  13.5967
    14.1975  14.4468  14.7157  14.8135

          k =-0.2767-0.4792 0.0000 (  7220 PWs)   bands (ev):

   -18.4360 -12.3161 -10.7893  -4.9212   0.6923   7.3453   7.9640   9.1906
     9.4810   9.6945  10.3257  10.5546  11.2832  12.4263  12.8094  13.5214
    14.0936  14.3349  14.6429  14.6732

          k =-0.2800-0.4850 0.0000 (  7210 PWs)   bands (ev):

   -18.3965 -12.3420 -10.8495  -4.8588   0.6340   7.4910   7.9923   9.3569
     9.6056   9.7386  10.4657  10.6791  11.3670  12.5619  12.9216  13.4626
    13.9826  14.2228  14.5346  14.5492

          k =-0.2833-0.4907 0.0000 (  7202 PWs)   bands (ev):

   -18.3593 -12.3642 -10.9083  -4.7995   0.5792   7.6354   8.0094   9.5146
     9.7364   9.7886  10.6045  10.8126  11.4474  12.6967  13.0163  13.4297
    13.8701  14.1119  14.3981  14.4449

          k =-0.2867-0.4965 0.0000 (  7202 PWs)   bands (ev):

   -18.3243 -12.3827 -10.9656  -4.7434   0.5282   7.7781   8.0169   9.6451
     9.8641   9.8734  10.7385  10.9536  11.5250  12.8276  13.0796  13.4355
    13.7601  14.0038  14.2639  14.3373

          k =-0.2900-0.5023 0.0000 (  7194 PWs)   bands (ev):

   -18.2916 -12.3977 -11.0212  -4.6908   0.4809   7.9182   8.0166   9.7262
     9.9885  10.0164  10.8634  11.1009  11.6021  12.9488  13.1071  13.4806
    13.6574  13.9023  14.1324  14.2314

          k =-0.2933-0.5081 0.0000 (  7194 PWs)   bands (ev):

   -18.2614 -12.4091 -11.0751  -4.6418   0.4375   8.0101   8.0550   9.7728
    10.1475  10.1648  10.9738  11.2531  11.6822  13.0486  13.1150  13.5348
    13.5702  13.8195  14.0040  14.1320

          k =-0.2967-0.5138 0.0000 (  7194 PWs)   bands (ev):

   -18.2337 -12.4172 -11.1269  -4.5966   0.3980   7.9991   8.1873   9.8064
    10.3182  10.3203  11.0640  11.4093  11.7704  13.1044  13.1201  13.5141
    13.5415  13.7894  13.8794  14.0462

          k =-0.3000-0.5196 0.0000 (  7190 PWs)   bands (ev):

   -18.2085 -12.4220 -11.1766  -4.5552   0.3625   7.9850   8.3140   9.8357
    10.4757  10.4983  11.1299  11.5681  11.8708  13.0950  13.1300  13.4781
    13.4968  13.7571  13.8168  13.9863

          k =-0.3033-0.5254 0.0000 (  7190 PWs)   bands (ev):

   -18.1858 -12.4239 -11.2238  -4.5178   0.3309   7.9691   8.4333   9.8645
    10.6366  10.6769  11.1722  11.7283  11.9852  13.0348  13.1452  13.3851
    13.4853  13.6443  13.8301  13.9670

          k =-0.3067-0.5312 0.0000 (  7186 PWs)   bands (ev):

   -18.1656 -12.4230 -11.2683  -4.4844   0.3032   7.9522   8.5438   9.8949
    10.8001  10.8491  11.1996  11.8881  12.1117  12.9522  13.1600  13.2839
    13.4466  13.5427  13.7981  13.9842

          k =-0.3100-0.5369 0.0000 (  7186 PWs)   bands (ev):

   -18.1481 -12.4199 -11.3097  -4.4551   0.2793   7.9353   8.6434   9.9284
    10.9653  10.9917  11.2397  12.0442  12.2464  12.8640  13.1591  13.1821
    13.3831  13.4652  13.7362  13.9989

          k =-0.3133-0.5427 0.0000 (  7182 PWs)   bands (ev):

   -18.1330 -12.4149 -11.3476  -4.4300   0.2592   7.9192   8.7304   9.9657
    11.0546  11.1309  11.3477  12.1907  12.3846  12.7802  13.0749  13.1294
    13.3092  13.4300  13.6638  13.9664

          k =-0.3167-0.5485 0.0000 (  7182 PWs)   bands (ev):

   -18.1204 -12.4087 -11.3814  -4.4090   0.2427   7.9045   8.8036  10.0065
    11.0527  11.2951  11.5136  12.3123  12.5199  12.7148  12.9730  13.0617
    13.2369  13.4354  13.5896  13.8913

          k =-0.3200-0.5543 0.0000 (  7174 PWs)   bands (ev):

   -18.1103 -12.4019 -11.4105  -4.3920   0.2297   7.8916   8.8620  10.0494
    11.0289  11.4553  11.6990  12.3753  12.6388  12.6951  12.8753  12.9853
    13.1787  13.4580  13.5194  13.8001

          k =-0.3233-0.5600 0.0000 (  7180 PWs)   bands (ev):

   -18.1026 -12.3952 -11.4345  -4.3791   0.2200   7.8810   8.9055  10.0912
    10.9999  11.6064  11.8912  12.3626  12.6921  12.7231  12.7910  12.9474
    13.1538  13.4400  13.4976  13.7058

          k =-0.3267-0.5658 0.0000 (  7180 PWs)   bands (ev):

   -18.0972 -12.3894 -11.4524  -4.3700   0.2134   7.8731   8.9351  10.1273
    10.9739  11.7388  12.0858  12.3172  12.6354  12.7134  12.7412  12.9973
    13.1814  13.3818  13.5191  13.6154

          k =-0.3300-0.5716 0.0000 (  7188 PWs)   bands (ev):

   -18.0940 -12.3854 -11.4636  -4.3646   0.2096   7.8682   8.9517  10.1523
    10.9562  11.8335  12.2783  12.2796  12.5463  12.6236  12.7310  13.0654
    13.2440  13.3371  13.5341  13.5392

          k =-0.3333-0.5774 0.0000 (  7188 PWs)   bands (ev):

   -18.0929 -12.3839 -11.4674  -4.3629   0.2084   7.8666   8.9569  10.1614
    10.9501  11.8669  12.2688  12.4195  12.4811  12.5506  12.7202  13.0928
    13.2802  13.3216  13.5054  13.5390

     Writing all to output data dir ./bn.save/

     init_run     :      0.03s CPU      0.05s WALL (       1 calls)
     electrons    :     35.61s CPU     36.97s WALL (       1 calls)

     Called by init_run:
     wfcinit      :      0.00s CPU      0.00s WALL (       1 calls)
     wfcinit:atom :      0.01s CPU      0.01s WALL (     401 calls)
     wfcinit:wfcr :      1.20s CPU      1.32s WALL (     401 calls)
     potinit      :      0.01s CPU      0.02s WALL (       1 calls)
     hinit0       :      0.00s CPU      0.01s WALL (       1 calls)

     Called by electrons:
     c_bands      :     35.61s CPU     36.96s WALL (       1 calls)
     v_of_rho     :      0.00s CPU      0.00s WALL (       1 calls)
     v_h          :      0.00s CPU      0.00s WALL (       1 calls)
     v_xc         :      0.00s CPU      0.00s WALL (       1 calls)

     Called by c_bands:
     init_us_2    :      0.01s CPU      0.01s WALL (     401 calls)
     init_us_2:cp :      0.01s CPU      0.01s WALL (     401 calls)
     cegterg      :     34.23s CPU     35.19s WALL (     689 calls)

     Called by sum_band:

     Called by *egterg:
     cdiaghg      :     10.30s CPU     10.57s WALL (   11322 calls)
     cegterg:over :      3.23s CPU      3.33s WALL (   10921 calls)
     cegterg:upda :      0.93s CPU      0.96s WALL (   10921 calls)
     cegterg:last :      0.58s CPU      0.59s WALL (    2408 calls)
     h_psi        :     18.85s CPU     19.48s WALL (   12011 calls)
     g_psi        :      0.05s CPU      0.05s WALL (   10921 calls)

     Called by h_psi:
     h_psi:calbec :      0.84s CPU      0.87s WALL (   12011 calls)
     vloc_psi     :     17.70s CPU     18.29s WALL (   12011 calls)
     add_vuspsi   :      0.24s CPU      0.25s WALL (   12011 calls)

     General routines
     calbec       :      0.83s CPU      0.85s WALL (   12011 calls)
     fft          :      0.00s CPU      0.00s WALL (       3 calls)
     fftw         :     17.06s CPU     17.64s WALL (  291590 calls)
     davcio       :      0.03s CPU      0.03s WALL (     802 calls)

     Parallel routines

     PWSCF        :     43.49s CPU     47.28s WALL


   This run was terminated on:  17: 7:48  25Jan2025            

=------------------------------------------------------------------------------=
   JOB DONE.
=------------------------------------------------------------------------------=
Note: The following floating-point exceptions are signalling: IEEE_DENORMAL
Note: The following floating-point exceptions are signalling: IEEE_DENORMAL
Note: The following floating-point exceptions are signalling: IEEE_DENORMAL
Note: The following floating-point exceptions are signalling: IEEE_DENORMAL
Note: The following floating-point exceptions are signalling: IEEE_DENORMAL
Note: The following floating-point exceptions are signalling: IEEE_DENORMAL
Note: The following floating-point exceptions are signalling: IEEE_DENORMAL
Note: The following floating-point exceptions are signalling: IEEE_DENORMAL
Note: The following floating-point exceptions are signalling: IEEE_DENORMAL
Note: The following floating-point exceptions are signalling: IEEE_DENORMAL
Note: The following floating-point exceptions are signalling: IEEE_DENORMAL
