
     Program BANDS v.7.2 starts on 23Jan2025 at 15: 0:42 

     This program is part of the open-source Quantum ESPRESSO suite
     for quantum simulation of materials; please cite
         "P. Giannozzi et al., J. Phys.:Condens. Matter 21 395502 (2009);
         "P. Giannozzi et al., J. Phys.:Condens. Matter 29 465901 (2017);
         "P. Giannozzi et al., J. Chem. Phys. 152 154105 (2020);
          URL http://www.quantum-espresso.org", 
     in publications or presentations arising from this work. More details at
     http://www.quantum-espresso.org/quote

     Parallel version (MPI), running on    64 processors

     MPI processes distributed on     4 nodes
     R & G space division:  proc/nbgrp/npool/nimage =      64
     486343 MiB available memory on the printing compute node when the environment starts


     Reading xml data from directory:

     ./bn.save/

     IMPORTANT: XC functional enforced from input :
     Exchange-correlation= PZ
                           (   1   1   0   0   0   0   0)
     Any further DFT definition will be discarded
     Please, verify this is what you really want


     Parallelization info
     --------------------
     sticks:   dense  smooth     PW     G-vecs:    dense   smooth      PW
     Min           6       6      1                  878      878     111
     Max           7       7      2                  927      927     162
     Sum         433     433    127                58173    58173    9681

     Using Slab Decomposition

     Reading collected, re-writing distributed wavefunctions
     high-symmetry point:  0.0000 0.0000 0.0000   x coordinate   0.0000
     high-symmetry point:  0.5000 0.2887 0.0000   x coordinate   0.5774
     high-symmetry point:  0.3333 0.5774 0.0000   x coordinate   0.9107
     high-symmetry point:  0.0000 0.0000 0.0000   x coordinate   1.5774
     high-symmetry point: -0.3333-0.5774 0.0000   x coordinate   2.2440

     Plottable bands (eV) written to file bn_bands.dat.gnu
     Bands written to file bn_bands.dat

 **************************************************************************

                    xk=(   0.00000,   0.00000,   0.00000  )

     point group D_3h (-62m)
     there are  6 classes
     the character table:

       E     2C3   3C2   s_h   2S3   3s_v 
A'_1   1.00  1.00  1.00  1.00  1.00  1.00
A'_2   1.00  1.00 -1.00  1.00  1.00 -1.00
E'     2.00 -1.00  0.00  2.00 -1.00  0.00
A''1   1.00  1.00  1.00 -1.00 -1.00 -1.00
A''2   1.00  1.00 -1.00 -1.00 -1.00  1.00
E''    2.00 -1.00  0.00 -2.00  1.00  0.00

     the symmetry operations in each class and the name of the first element:

     E        1
                                                                 
     2C3      3    4
                                                                 
     3C2      2    6    5
                                                                 
     s_h      7
                                                                 
     2S3      9   10
                                                                 
     3s_v     8   11   12
                                                                 

     Band symmetry, D_3h (-62m) point group:

     e(  1 -  1) =    -21.79898  eV     1   --> A'_1           
     e(  2 -  2) =     -9.67388  eV     1   --> A''2           
     e(  3 -  4) =     -5.75491  eV     2   --> E'             
     e(  5 -  5) =      0.47513  eV     1   --> A'_1           
     e(  6 -  6) =      1.54121  eV     1   --> A''2           
     e(  7 -  7) =      1.89901  eV     1   --> A'_1           
     e(  8 -  8) =      2.77671  eV     1   --> A''2           
     e(  9 -  9) =      3.16483  eV     1   --> A'_1           
     e( 10 - 10) =      4.77390  eV     1   --> A''2           
     e( 11 - 11) =      5.31598  eV     1   --> A'_1           
     e( 12 - 13) =      7.12709  eV     2   --> E'             
     e( 14 - 14) =      7.27189  eV     1   --> A''2           
     e( 15 - 15) =      7.97807  eV     1   --> A'_1           
     e( 16 - 16) =      9.19418  eV     1   --> A''2           
     e( 17 - 17) =     10.13262  eV     1   --> A'_1           
     e( 18 - 18) =     12.08602  eV     1   --> A''2           
     e( 19 - 19) =     13.15994  eV     1   --> A'_1           
     e( 20 - 20) =     16.37883  eV     1   --> A''2           

 **************************************************************************

 **************************************************************************

                    xk=(   0.00500,   0.00289,   0.00000  )

     point group C_2v (mm2) 
     there are  4 classes
     the character table:

       E     C2    s_v   s_v' 
A_1    1.00  1.00  1.00  1.00
A_2    1.00  1.00 -1.00 -1.00
B_1    1.00 -1.00  1.00 -1.00
B_2    1.00 -1.00 -1.00  1.00

     the symmetry operations in each class and the name of the first element:

     E        1
                                                                 
     C2       2
                                                                 
     s_v      3
                                                                 
     s_v'     4
                                                                 

     Band symmetry, C_2v (mm2)  point group:

     e(  1 -  1) =    -21.79850  eV     1   --> A_1  D_1  S_1  
     e(  2 -  2) =     -9.67320  eV     1   --> B_2  D_4  S_4  
     e(  3 -  3) =     -5.75697  eV     1   --> A_1  D_1  S_1  
     e(  4 -  4) =     -5.75591  eV     1   --> B_1  D_3  S_3  
     e(  5 -  5) =      0.47597  eV     1   --> A_1  D_1  S_1  
     e(  6 -  6) =      1.54197  eV     1   --> B_2  D_4  S_4  
     e(  7 -  7) =      1.89981  eV     1   --> A_1  D_1  S_1  
     e(  8 -  8) =      2.77748  eV     1   --> B_2  D_4  S_4  
     e(  9 -  9) =      3.16564  eV     1   --> A_1  D_1  S_1  
     e( 10 - 10) =      4.77459  eV     1   --> B_2  D_4  S_4  
     e( 11 - 11) =      5.31681  eV     1   --> A_1  D_1  S_1  
     e( 12 - 12) =      7.12673  eV     1   --> A_1  D_1  S_1  
     e( 13 - 13) =      7.12928  eV     1   --> B_1  D_3  S_3  
     e( 14 - 14) =      7.27208  eV     1   --> B_2  D_4  S_4  
     e( 15 - 15) =      7.97919  eV     1   --> A_1  D_1  S_1  
     e( 16 - 16) =      9.19369  eV     1   --> B_2  D_4  S_4  
     e( 17 - 17) =     10.13384  eV     1   --> A_1  D_1  S_1  
     e( 18 - 18) =     12.08641  eV     1   --> B_2  D_4  S_4  
     e( 19 - 19) =     13.16085  eV     1   --> A_1  D_1  S_1  
     e( 20 - 20) =     16.37935  eV     1   --> B_2  D_4  S_4  

 **************************************************************************

 **************************************************************************

                    xk=(   0.01000,   0.00577,   0.00000  )

     Band symmetry, C_2v (mm2)  point group:

     e(  1 -  1) =    -21.79706  eV     1   --> A_1  D_1  S_1  
     e(  2 -  2) =     -9.67124  eV     1   --> B_2  D_4  S_4  
     e(  3 -  3) =     -5.76310  eV     1   --> A_1  D_1  S_1  
     e(  4 -  4) =     -5.75889  eV     1   --> B_1  D_3  S_3  
     e(  5 -  5) =      0.47848  eV     1   --> A_1  D_1  S_1  
     e(  6 -  6) =      1.54424  eV     1   --> B_2  D_4  S_4  
     e(  7 -  7) =      1.90222  eV     1   --> A_1  D_1  S_1  
     e(  8 -  8) =      2.77976  eV     1   --> B_2  D_4  S_4  
     e(  9 -  9) =      3.16808  eV     1   --> A_1  D_1  S_1  
     e( 10 - 10) =      4.77663  eV     1   --> B_2  D_4  S_4  
     e( 11 - 11) =      5.31928  eV     1   --> A_1  D_1  S_1  
     e( 12 - 12) =      7.12568  eV     1   --> A_1  D_1  S_1  
     e( 13 - 13) =      7.13584  eV     1   --> B_1  D_3  S_3  
     e( 14 - 14) =      7.27254  eV     1   --> B_2  D_4  S_4  
     e( 15 - 15) =      7.98256  eV     1   --> A_1  D_1  S_1  
     e( 16 - 16) =      9.19212  eV     1   --> B_2  D_4  S_4  
     e( 17 - 17) =     10.13748  eV     1   --> A_1  D_1  S_1  
     e( 18 - 18) =     12.08760  eV     1   --> B_2  D_4  S_4  
     e( 19 - 19) =     13.16358  eV     1   --> A_1  D_1  S_1  
     e( 20 - 20) =     16.38089  eV     1   --> B_2  D_4  S_4  

 **************************************************************************

 **************************************************************************

                    xk=(   0.01500,   0.00866,   0.00000  )

     Band symmetry, C_2v (mm2)  point group:

     e(  1 -  1) =    -21.79465  eV     1   --> A_1  D_1  S_1  
     e(  2 -  2) =     -9.66796  eV     1   --> B_2  D_4  S_4  
     e(  3 -  3) =     -5.77335  eV     1   --> A_1  D_1  S_1  
     e(  4 -  4) =     -5.76380  eV     1   --> B_1  D_3  S_3  
     e(  5 -  5) =      0.48267  eV     1   --> A_1  D_1  S_1  
     e(  6 -  6) =      1.54803  eV     1   --> B_2  D_4  S_4  
     e(  7 -  7) =      1.90623  eV     1   --> A_1  D_1  S_1  
     e(  8 -  8) =      2.78356  eV     1   --> B_2  D_4  S_4  
     e(  9 -  9) =      3.17214  eV     1   --> A_1  D_1  S_1  
     e( 10 - 10) =      4.78002  eV     1   --> B_2  D_4  S_4  
     e( 11 - 11) =      5.32340  eV     1   --> A_1  D_1  S_1  
     e( 12 - 12) =      7.12392  eV     1   --> A_1  D_1  S_1  
     e( 13 - 13) =      7.14680  eV     1   --> B_1  D_3  S_3  
     e( 14 - 14) =      7.27330  eV     1   --> B_2  D_4  S_4  
     e( 15 - 15) =      7.98817  eV     1   --> A_1  D_1  S_1  
     e( 16 - 16) =      9.18954  eV     1   --> B_2  D_4  S_4  
     e( 17 - 17) =     10.14355  eV     1   --> A_1  D_1  S_1  
     e( 18 - 18) =     12.08959  eV     1   --> B_2  D_4  S_4  
     e( 19 - 19) =     13.16813  eV     1   --> A_1  D_1  S_1  
     e( 20 - 20) =     16.38345  eV     1   --> B_2  D_4  S_4  

 **************************************************************************

 **************************************************************************

                    xk=(   0.02000,   0.01155,   0.00000  )

     Band symmetry, C_2v (mm2)  point group:

     e(  1 -  1) =    -21.79128  eV     1   --> A_1  D_1  S_1  
     e(  2 -  2) =     -9.66339  eV     1   --> B_2  D_4  S_4  
     e(  3 -  3) =     -5.78777  eV     1   --> A_1  D_1  S_1  
     e(  4 -  4) =     -5.77075  eV     1   --> B_1  D_3  S_3  
     e(  5 -  5) =      0.48853  eV     1   --> A_1  D_1  S_1  
     e(  6 -  6) =      1.55332  eV     1   --> B_2  D_4  S_4  
     e(  7 -  7) =      1.91184  eV     1   --> A_1  D_1  S_1  
     e(  8 -  8) =      2.78887  eV     1   --> B_2  D_4  S_4  
     e(  9 -  9) =      3.17782  eV     1   --> A_1  D_1  S_1  
     e( 10 - 10) =      4.78476  eV     1   --> B_2  D_4  S_4  
     e( 11 - 11) =      5.32915  eV     1   --> A_1  D_1  S_1  
     e( 12 - 12) =      7.12142  eV     1   --> A_1  D_1  S_1  
     e( 13 - 13) =      7.16208  eV     1   --> B_1  D_3  S_3  
     e( 14 - 14) =      7.27428  eV     1   --> B_2  D_4  S_4  
     e( 15 - 15) =      7.99601  eV     1   --> A_1  D_1  S_1  
     e( 16 - 16) =      9.18590  eV     1   --> B_2  D_4  S_4  
     e( 17 - 17) =     10.15203  eV     1   --> A_1  D_1  S_1  
     e( 18 - 18) =     12.09239  eV     1   --> B_2  D_4  S_4  
     e( 19 - 19) =     13.17449  eV     1   --> A_1  D_1  S_1  
     e( 20 - 20) =     16.38705  eV     1   --> B_2  D_4  S_4  

 **************************************************************************

 **************************************************************************

                    xk=(   0.02500,   0.01443,   0.00000  )

     Band symmetry, C_2v (mm2)  point group:

     e(  1 -  1) =    -21.78696  eV     1   --> A_1  D_1  S_1  
     e(  2 -  2) =     -9.65750  eV     1   --> B_2  D_4  S_4  
     e(  3 -  3) =     -5.80620  eV     1   --> A_1  D_1  S_1  
     e(  4 -  4) =     -5.77965  eV     1   --> B_1  D_3  S_3  
     e(  5 -  5) =      0.49606  eV     1   --> A_1  D_1  S_1  
     e(  6 -  6) =      1.56013  eV     1   --> B_2  D_4  S_4  
     e(  7 -  7) =      1.91906  eV     1   --> A_1  D_1  S_1  
     e(  8 -  8) =      2.79571  eV     1   --> B_2  D_4  S_4  
     e(  9 -  9) =      3.18513  eV     1   --> A_1  D_1  S_1  
     e( 10 - 10) =      4.79085  eV     1   --> B_2  D_4  S_4  
     e( 11 - 11) =      5.33654  eV     1   --> A_1  D_1  S_1  
     e( 12 - 12) =      7.11827  eV     1   --> A_1  D_1  S_1  
     e( 13 - 13) =      7.18168  eV     1   --> B_1  D_3  S_3  
     e( 14 - 14) =      7.27551  eV     1   --> B_2  D_4  S_4  
     e( 15 - 15) =      8.00605  eV     1   --> A_1  D_1  S_1  
     e( 16 - 16) =      9.18129  eV     1   --> B_2  D_4  S_4  
     e( 17 - 17) =     10.16291  eV     1   --> A_1  D_1  S_1  
     e( 18 - 18) =     12.09602  eV     1   --> B_2  D_4  S_4  
     e( 19 - 19) =     13.18266  eV     1   --> A_1  D_1  S_1  
     e( 20 - 20) =     16.39166  eV     1   --> B_2  D_4  S_4  

 **************************************************************************

 **************************************************************************

                    xk=(   0.03000,   0.01732,   0.00000  )

     Band symmetry, C_2v (mm2)  point group:

     e(  1 -  1) =    -21.78167  eV     1   --> A_1  D_1  S_1  
     e(  2 -  2) =     -9.65033  eV     1   --> B_2  D_4  S_4  
     e(  3 -  3) =     -5.82875  eV     1   --> A_1  D_1  S_1  
     e(  4 -  4) =     -5.79051  eV     1   --> B_1  D_3  S_3  
     e(  5 -  5) =      0.50525  eV     1   --> A_1  D_1  S_1  
     e(  6 -  6) =      1.56844  eV     1   --> B_2  D_4  S_4  
     e(  7 -  7) =      1.92788  eV     1   --> A_1  D_1  S_1  
     e(  8 -  8) =      2.80406  eV     1   --> B_2  D_4  S_4  
     e(  9 -  9) =      3.19405  eV     1   --> A_1  D_1  S_1  
     e( 10 - 10) =      4.79826  eV     1   --> B_2  D_4  S_4  
     e( 11 - 11) =      5.34556  eV     1   --> A_1  D_1  S_1  
     e( 12 - 12) =      7.11442  eV     1   --> A_1  D_1  S_1  
     e( 13 - 13) =      7.20559  eV     1   --> B_1  D_3  S_3  
     e( 14 - 14) =      7.27688  eV     1   --> B_2  D_4  S_4  
     e( 15 - 15) =      8.01827  eV     1   --> A_1  D_1  S_1  
     e( 16 - 16) =      9.17571  eV     1   --> B_2  D_4  S_4  
     e( 17 - 17) =     10.17616  eV     1   --> A_1  D_1  S_1  
     e( 18 - 18) =     12.10049  eV     1   --> B_2  D_4  S_4  
     e( 19 - 19) =     13.19263  eV     1   --> A_1  D_1  S_1  
     e( 20 - 20) =     16.39730  eV     1   --> B_2  D_4  S_4  

 **************************************************************************

 **************************************************************************

                    xk=(   0.03500,   0.02021,   0.00000  )

     Band symmetry, C_2v (mm2)  point group:

     e(  1 -  1) =    -21.77542  eV     1   --> A_1  D_1  S_1  
     e(  2 -  2) =     -9.64185  eV     1   --> B_2  D_4  S_4  
     e(  3 -  3) =     -5.85519  eV     1   --> A_1  D_1  S_1  
     e(  4 -  4) =     -5.80323  eV     1   --> B_1  D_3  S_3  
     e(  5 -  5) =      0.51609  eV     1   --> A_1  D_1  S_1  
     e(  6 -  6) =      1.57826  eV     1   --> B_2  D_4  S_4  
     e(  7 -  7) =      1.93831  eV     1   --> A_1  D_1  S_1  
     e(  8 -  8) =      2.81392  eV     1   --> B_2  D_4  S_4  
     e(  9 -  9) =      3.20459  eV     1   --> A_1  D_1  S_1  
     e( 10 - 10) =      4.80702  eV     1   --> B_2  D_4  S_4  
     e( 11 - 11) =      5.35619  eV     1   --> A_1  D_1  S_1  
     e( 12 - 12) =      7.10998  eV     1   --> A_1  D_1  S_1  
     e( 13 - 13) =      7.23378  eV     1   --> B_1  D_3  S_3  
     e( 14 - 14) =      7.27840  eV     1   --> B_2  D_4  S_4  
     e( 15 - 15) =      8.03267  eV     1   --> A_1  D_1  S_1  
     e( 16 - 16) =      9.16926  eV     1   --> B_2  D_4  S_4  
     e( 17 - 17) =     10.19179  eV     1   --> A_1  D_1  S_1  
     e( 18 - 18) =     12.10583  eV     1   --> B_2  D_4  S_4  
     e( 19 - 19) =     13.20440  eV     1   --> A_1  D_1  S_1  
     e( 20 - 20) =     16.40396  eV     1   --> B_2  D_4  S_4  

 **************************************************************************

 **************************************************************************

                    xk=(   0.04000,   0.02309,   0.00000  )

     Band symmetry, C_2v (mm2)  point group:

     e(  1 -  1) =    -21.76822  eV     1   --> A_1  D_1  S_1  
     e(  2 -  2) =     -9.63207  eV     1   --> B_2  D_4  S_4  
     e(  3 -  3) =     -5.88553  eV     1   --> A_1  D_1  S_1  
     e(  4 -  4) =     -5.81784  eV     1   --> B_1  D_3  S_3  
     e(  5 -  5) =      0.52857  eV     1   --> A_1  D_1  S_1  
     e(  6 -  6) =      1.58959  eV     1   --> B_2  D_4  S_4  
     e(  7 -  7) =      1.95033  eV     1   --> A_1  D_1  S_1  
     e(  8 -  8) =      2.82529  eV     1   --> B_2  D_4  S_4  
     e(  9 -  9) =      3.21674  eV     1   --> A_1  D_1  S_1  
     e( 10 - 10) =      4.81710  eV     1   --> B_2  D_4  S_4  
     e( 11 - 11) =      5.36843  eV     1   --> A_1  D_1  S_1  
     e( 12 - 12) =      7.10495  eV     1   --> A_1  D_1  S_1  
     e( 13 - 13) =      7.26621  eV     1   --> B_1  D_3  S_3  
     e( 14 - 14) =      7.27997  eV     1   --> B_2  D_4  S_4  
     e( 15 - 15) =      8.04920  eV     1   --> A_1  D_1  S_1  
     e( 16 - 16) =      9.16197  eV     1   --> B_2  D_4  S_4  
     e( 17 - 17) =     10.20975  eV     1   --> A_1  D_1  S_1  
     e( 18 - 18) =     12.11207  eV     1   --> B_2  D_4  S_4  
     e( 19 - 19) =     13.21795  eV     1   --> A_1  D_1  S_1  
     e( 20 - 20) =     16.41163  eV     1   --> B_2  D_4  S_4  

 **************************************************************************

 **************************************************************************

                    xk=(   0.04500,   0.02598,   0.00000  )

     Band symmetry, C_2v (mm2)  point group:

     e(  1 -  1) =    -21.76005  eV     1   --> A_1  D_1  S_1  
     e(  2 -  2) =     -9.62100  eV     1   --> B_2  D_4  S_4  
     e(  3 -  3) =     -5.91976  eV     1   --> A_1  D_1  S_1  
     e(  4 -  4) =     -5.83425  eV     1   --> B_1  D_3  S_3  
     e(  5 -  5) =      0.54270  eV     1   --> A_1  D_1  S_1  
     e(  6 -  6) =      1.60242  eV     1   --> B_2  D_4  S_4  
     e(  7 -  7) =      1.96396  eV     1   --> A_1  D_1  S_1  
     e(  8 -  8) =      2.83818  eV     1   --> B_2  D_4  S_4  
     e(  9 -  9) =      3.23050  eV     1   --> A_1  D_1  S_1  
     e( 10 - 10) =      4.82848  eV     1   --> B_2  D_4  S_4  
     e( 11 - 11) =      5.38226  eV     1   --> A_1  D_1  S_1  
     e( 12 - 12) =      7.09934  eV     1   --> A_1  D_1  S_1  
     e( 13 - 13) =      7.28150  eV     1   --> B_2  D_4  S_4  
     e( 14 - 14) =      7.30286  eV     1   --> B_1  D_3  S_3  
     e( 15 - 15) =      8.06783  eV     1   --> A_1  D_1  S_1  
     e( 16 - 16) =      9.15391  eV     1   --> B_2  D_4  S_4  
     e( 17 - 17) =     10.23002  eV     1   --> A_1  D_1  S_1  
     e( 18 - 18) =     12.11924  eV     1   --> B_2  D_4  S_4  
     e( 19 - 19) =     13.23328  eV     1   --> A_1  D_1  S_1  
     e( 20 - 20) =     16.42032  eV     1   --> B_2  D_4  S_4  

 **************************************************************************

 **************************************************************************

                    xk=(   0.05000,   0.02887,   0.00000  )

     Band symmetry, C_2v (mm2)  point group:

     e(  1 -  1) =    -21.75094  eV     1   --> A_1  D_1  S_1  
     e(  2 -  2) =     -9.60863  eV     1   --> B_2  D_4  S_4  
     e(  3 -  3) =     -5.95779  eV     1   --> A_1  D_1  S_1  
     e(  4 -  4) =     -5.85248  eV     1   --> B_1  D_3  S_3  
     e(  5 -  5) =      0.55845  eV     1   --> A_1  D_1  S_1  
     e(  6 -  6) =      1.61675  eV     1   --> B_2  D_4  S_4  
     e(  7 -  7) =      1.97919  eV     1   --> A_1  D_1  S_1  
     e(  8 -  8) =      2.85257  eV     1   --> B_2  D_4  S_4  
     e(  9 -  9) =      3.24586  eV     1   --> A_1  D_1  S_1  
     e( 10 - 10) =      4.84116  eV     1   --> B_2  D_4  S_4  
     e( 11 - 11) =      5.39766  eV     1   --> A_1  D_1  S_1  
     e( 12 - 12) =      7.09320  eV     1   --> A_1  D_1  S_1  
     e( 13 - 13) =      7.28294  eV     1   --> B_2  D_4  S_4  
     e( 14 - 14) =      7.34364  eV     1   --> B_1  D_3  S_3  
     e( 15 - 15) =      8.08854  eV     1   --> A_1  D_1  S_1  
     e( 16 - 16) =      9.14520  eV     1   --> B_2  D_4  S_4  
     e( 17 - 17) =     10.25257  eV     1   --> A_1  D_1  S_1  
     e( 18 - 18) =     12.12737  eV     1   --> B_2  D_4  S_4  
     e( 19 - 19) =     13.25036  eV     1   --> A_1  D_1  S_1  
     e( 20 - 20) =     16.43001  eV     1   --> B_2  D_4  S_4  

 **************************************************************************

 **************************************************************************

                    xk=(   0.05500,   0.03175,   0.00000  )

     Band symmetry, C_2v (mm2)  point group:

     e(  1 -  1) =    -21.74086  eV     1   --> A_1  D_1  S_1  
     e(  2 -  2) =     -9.59495  eV     1   --> B_2  D_4  S_4  
     e(  3 -  3) =     -5.99949  eV     1   --> A_1  D_1  S_1  
     e(  4 -  4) =     -5.87247  eV     1   --> B_1  D_3  S_3  
     e(  5 -  5) =      0.57581  eV     1   --> A_1  D_1  S_1  
     e(  6 -  6) =      1.63258  eV     1   --> B_2  D_4  S_4  
     e(  7 -  7) =      1.99602  eV     1   --> A_1  D_1  S_1  
     e(  8 -  8) =      2.86847  eV     1   --> B_2  D_4  S_4  
     e(  9 -  9) =      3.26283  eV     1   --> A_1  D_1  S_1  
     e( 10 - 10) =      4.85513  eV     1   --> B_2  D_4  S_4  
     e( 11 - 11) =      5.41462  eV     1   --> A_1  D_1  S_1  
     e( 12 - 12) =      7.08660  eV     1   --> A_1  D_1  S_1  
     e( 13 - 13) =      7.28420  eV     1   --> B_2  D_4  S_4  
     e( 14 - 14) =      7.38852  eV     1   --> B_1  D_3  S_3  
     e( 15 - 15) =      8.11128  eV     1   --> A_1  D_1  S_1  
     e( 16 - 16) =      9.13595  eV     1   --> B_2  D_4  S_4  
     e( 17 - 17) =     10.27738  eV     1   --> A_1  D_1  S_1  
     e( 18 - 18) =     12.13649  eV     1   --> B_2  D_4  S_4  
     e( 19 - 19) =     13.26920  eV     1   --> A_1  D_1  S_1  
     e( 20 - 20) =     16.44071  eV     1   --> B_2  D_4  S_4  

 **************************************************************************

 **************************************************************************

                    xk=(   0.06000,   0.03464,   0.00000  )

     Band symmetry, C_2v (mm2)  point group:

     e(  1 -  1) =    -21.72984  eV     1   --> A_1  D_1  S_1  
     e(  2 -  2) =     -9.57999  eV     1   --> B_2  D_4  S_4  
     e(  3 -  3) =     -6.04478  eV     1   --> A_1  D_1  S_1  
     e(  4 -  4) =     -5.89417  eV     1   --> B_1  D_3  S_3  
     e(  5 -  5) =      0.59479  eV     1   --> A_1  D_1  S_1  
     e(  6 -  6) =      1.64991  eV     1   --> B_2  D_4  S_4  
     e(  7 -  7) =      2.01445  eV     1   --> A_1  D_1  S_1  
     e(  8 -  8) =      2.88587  eV     1   --> B_2  D_4  S_4  
     e(  9 -  9) =      3.28139  eV     1   --> A_1  D_1  S_1  
     e( 10 - 10) =      4.87036  eV     1   --> B_2  D_4  S_4  
     e( 11 - 11) =      5.43313  eV     1   --> A_1  D_1  S_1  
     e( 12 - 12) =      7.07956  eV     1   --> A_1  D_1  S_1  
     e( 13 - 13) =      7.28514  eV     1   --> B_2  D_4  S_4  
     e( 14 - 14) =      7.43745  eV     1   --> B_1  D_3  S_3  
     e( 15 - 15) =      8.13603  eV     1   --> A_1  D_1  S_1  
     e( 16 - 16) =      9.12626  eV     1   --> B_2  D_4  S_4  
     e( 17 - 17) =     10.30440  eV     1   --> A_1  D_1  S_1  
     e( 18 - 18) =     12.14664  eV     1   --> B_2  D_4  S_4  
     e( 19 - 19) =     13.28976  eV     1   --> A_1  D_1  S_1  
     e( 20 - 20) =     16.45239  eV     1   --> B_2  D_4  S_4  

 **************************************************************************

 **************************************************************************

                    xk=(   0.06500,   0.03753,   0.00000  )

     Band symmetry, C_2v (mm2)  point group:

     e(  1 -  1) =    -21.71787  eV     1   --> A_1  D_1  S_1  
     e(  2 -  2) =     -9.56373  eV     1   --> B_2  D_4  S_4  
     e(  3 -  3) =     -6.09364  eV     1   --> A_1  D_1  S_1  
     e(  4 -  4) =     -5.91753  eV     1   --> B_1  D_3  S_3  
     e(  5 -  5) =      0.61536  eV     1   --> A_1  D_1  S_1  
     e(  6 -  6) =      1.66873  eV     1   --> B_2  D_4  S_4  
     e(  7 -  7) =      2.03448  eV     1   --> A_1  D_1  S_1  
     e(  8 -  8) =      2.90477  eV     1   --> B_2  D_4  S_4  
     e(  9 -  9) =      3.30154  eV     1   --> A_1  D_1  S_1  
     e( 10 - 10) =      4.88684  eV     1   --> B_2  D_4  S_4  
     e( 11 - 11) =      5.45315  eV     1   --> A_1  D_1  S_1  
     e( 12 - 12) =      7.07211  eV     1   --> A_1  D_1  S_1  
     e( 13 - 13) =      7.28564  eV     1   --> B_2  D_4  S_4  
     e( 14 - 14) =      7.49037  eV     1   --> B_1  D_3  S_3  
     e( 15 - 15) =      8.16275  eV     1   --> A_1  D_1  S_1  
     e( 16 - 16) =      9.11628  eV     1   --> B_2  D_4  S_4  
     e( 17 - 17) =     10.33359  eV     1   --> A_1  D_1  S_1  
     e( 18 - 18) =     12.15786  eV     1   --> B_2  D_4  S_4  
     e( 19 - 19) =     13.31204  eV     1   --> A_1  D_1  S_1  
     e( 20 - 20) =     16.46506  eV     1   --> B_2  D_4  S_4  

 **************************************************************************

 **************************************************************************

                    xk=(   0.07000,   0.04041,   0.00000  )

     Band symmetry, C_2v (mm2)  point group:

     e(  1 -  1) =    -21.70494  eV     1   --> A_1  D_1  S_1  
     e(  2 -  2) =     -9.54619  eV     1   --> B_2  D_4  S_4  
     e(  3 -  3) =     -6.14601  eV     1   --> A_1  D_1  S_1  
     e(  4 -  4) =     -5.94249  eV     1   --> B_1  D_3  S_3  
     e(  5 -  5) =      0.63752  eV     1   --> A_1  D_1  S_1  
     e(  6 -  6) =      1.68904  eV     1   --> B_2  D_4  S_4  
     e(  7 -  7) =      2.05610  eV     1   --> A_1  D_1  S_1  
     e(  8 -  8) =      2.92516  eV     1   --> B_2  D_4  S_4  
     e(  9 -  9) =      3.32328  eV     1   --> A_1  D_1  S_1  
     e( 10 - 10) =      4.90454  eV     1   --> B_2  D_4  S_4  
     e( 11 - 11) =      5.47468  eV     1   --> A_1  D_1  S_1  
     e( 12 - 12) =      7.06429  eV     1   --> A_1  D_1  S_1  
     e( 13 - 13) =      7.28557  eV     1   --> B_2  D_4  S_4  
     e( 14 - 14) =      7.54722  eV     1   --> B_1  D_3  S_3  
     e( 15 - 15) =      8.19140  eV     1   --> A_1  D_1  S_1  
     e( 16 - 16) =      9.10614  eV     1   --> B_2  D_4  S_4  
     e( 17 - 17) =     10.36492  eV     1   --> A_1  D_1  S_1  
     e( 18 - 18) =     12.17017  eV     1   --> B_2  D_4  S_4  
     e( 19 - 19) =     13.33603  eV     1   --> A_1  D_1  S_1  
     e( 20 - 20) =     16.47869  eV     1   --> B_2  D_4  S_4  

 **************************************************************************

 **************************************************************************

                    xk=(   0.07500,   0.04330,   0.00000  )

     Band symmetry, C_2v (mm2)  point group:

     e(  1 -  1) =    -21.69108  eV     1   --> A_1  D_1  S_1  
     e(  2 -  2) =     -9.52736  eV     1   --> B_2  D_4  S_4  
     e(  3 -  3) =     -6.20164  eV     1   --> A_1  D_1  S_1  
     e(  4 -  4) =     -5.96899  eV     1   --> B_1  D_3  S_3  
     e(  5 -  5) =      0.66125  eV     1   --> A_1  D_1  S_1  
     e(  6 -  6) =      1.71083  eV     1   --> B_2  D_4  S_4  
     e(  7 -  7) =      2.07932  eV     1   --> A_1  D_1  S_1  
     e(  8 -  8) =      2.94704  eV     1   --> B_2  D_4  S_4  
     e(  9 -  9) =      3.34660  eV     1   --> A_1  D_1  S_1  
     e( 10 - 10) =      4.92344  eV     1   --> B_2  D_4  S_4  
     e( 11 - 11) =      5.49767  eV     1   --> A_1  D_1  S_1  
     e( 12 - 12) =      7.05621  eV     1   --> A_1  D_1  S_1  
     e( 13 - 13) =      7.28479  eV     1   --> B_2  D_4  S_4  
     e( 14 - 14) =      7.60794  eV     1   --> B_1  D_3  S_3  
     e( 15 - 15) =      8.22194  eV     1   --> A_1  D_1  S_1  
     e( 16 - 16) =      9.09602  eV     1   --> B_2  D_4  S_4  
     e( 17 - 17) =     10.39834  eV     1   --> A_1  D_1  S_1  
     e( 18 - 18) =     12.18363  eV     1   --> B_2  D_4  S_4  
     e( 19 - 19) =     13.36169  eV     1   --> A_1  D_1  S_1  
     e( 20 - 20) =     16.49327  eV     1   --> B_2  D_4  S_4  

 **************************************************************************

 **************************************************************************

                    xk=(   0.08000,   0.04619,   0.00000  )

     Band symmetry, C_2v (mm2)  point group:

     e(  1 -  1) =    -21.67626  eV     1   --> A_1  D_1  S_1  
     e(  2 -  2) =     -9.50725  eV     1   --> B_2  D_4  S_4  
     e(  3 -  3) =     -6.26055  eV     1   --> A_1  D_1  S_1  
     e(  4 -  4) =     -5.99698  eV     1   --> B_1  D_3  S_3  
     e(  5 -  5) =      0.68654  eV     1   --> A_1  D_1  S_1  
     e(  6 -  6) =      1.73410  eV     1   --> B_2  D_4  S_4  
     e(  7 -  7) =      2.10414  eV     1   --> A_1  D_1  S_1  
     e(  8 -  8) =      2.97040  eV     1   --> B_2  D_4  S_4  
     e(  9 -  9) =      3.37150  eV     1   --> A_1  D_1  S_1  
     e( 10 - 10) =      4.94350  eV     1   --> B_2  D_4  S_4  
     e( 11 - 11) =      5.52212  eV     1   --> A_1  D_1  S_1  
     e( 12 - 12) =      7.04786  eV     1   --> A_1  D_1  S_1  
     e( 13 - 13) =      7.28315  eV     1   --> B_2  D_4  S_4  
     e( 14 - 14) =      7.67245  eV     1   --> B_1  D_3  S_3  
     e( 15 - 15) =      8.25434  eV     1   --> A_1  D_1  S_1  
     e( 16 - 16) =      9.08611  eV     1   --> B_2  D_4  S_4  
     e( 17 - 17) =     10.43381  eV     1   --> A_1  D_1  S_1  
     e( 18 - 18) =     12.19826  eV     1   --> B_2  D_4  S_4  
     e( 19 - 19) =     13.38901  eV     1   --> A_1  D_1  S_1  
     e( 20 - 20) =     16.50878  eV     1   --> B_2  D_4  S_4  

 **************************************************************************

 **************************************************************************

                    xk=(   0.08500,   0.04907,   0.00000  )

     Band symmetry, C_2v (mm2)  point group:

     e(  1 -  1) =    -21.66051  eV     1   --> A_1  D_1  S_1  
     e(  2 -  2) =     -9.48586  eV     1   --> B_2  D_4  S_4  
     e(  3 -  3) =     -6.32255  eV     1   --> A_1  D_1  S_1  
     e(  4 -  4) =     -6.02642  eV     1   --> B_1  D_3  S_3  
     e(  5 -  5) =      0.71339  eV     1   --> A_1  D_1  S_1  
     e(  6 -  6) =      1.75885  eV     1   --> B_2  D_4  S_4  
     e(  7 -  7) =      2.13055  eV     1   --> A_1  D_1  S_1  
     e(  8 -  8) =      2.99524  eV     1   --> B_2  D_4  S_4  
     e(  9 -  9) =      3.39798  eV     1   --> A_1  D_1  S_1  
     e( 10 - 10) =      4.96469  eV     1   --> B_2  D_4  S_4  
     e( 11 - 11) =      5.54798  eV     1   --> A_1  D_1  S_1  
     e( 12 - 12) =      7.03934  eV     1   --> A_1  D_1  S_1  
     e( 13 - 13) =      7.28049  eV     1   --> B_2  D_4  S_4  
     e( 14 - 14) =      7.74068  eV     1   --> B_1  D_3  S_3  
     e( 15 - 15) =      8.28856  eV     1   --> A_1  D_1  S_1  
     e( 16 - 16) =      9.07662  eV     1   --> B_2  D_4  S_4  
     e( 17 - 17) =     10.47130  eV     1   --> A_1  D_1  S_1  
     e( 18 - 18) =     12.21409  eV     1   --> B_2  D_4  S_4  
     e( 19 - 19) =     13.41798  eV     1   --> A_1  D_1  S_1  
     e( 20 - 20) =     16.52519  eV     1   --> B_2  D_4  S_4  

 **************************************************************************

 **************************************************************************

                    xk=(   0.09000,   0.05196,   0.00000  )

     Band symmetry, C_2v (mm2)  point group:

     e(  1 -  1) =    -21.64383  eV     1   --> A_1  D_1  S_1  
     e(  2 -  2) =     -9.46318  eV     1   --> B_2  D_4  S_4  
     e(  3 -  3) =     -6.38761  eV     1   --> A_1  D_1  S_1  
     e(  4 -  4) =     -6.05718  eV     1   --> B_1  D_3  S_3  
     e(  5 -  5) =      0.74178  eV     1   --> A_1  D_1  S_1  
     e(  6 -  6) =      1.78506  eV     1   --> B_2  D_4  S_4  
     e(  7 -  7) =      2.15856  eV     1   --> A_1  D_1  S_1  
     e(  8 -  8) =      3.02155  eV     1   --> B_2  D_4  S_4  
     e(  9 -  9) =      3.42602  eV     1   --> A_1  D_1  S_1  
     e( 10 - 10) =      4.98697  eV     1   --> B_2  D_4  S_4  
     e( 11 - 11) =      5.57523  eV     1   --> A_1  D_1  S_1  
     e( 12 - 12) =      7.03067  eV     1   --> A_1  D_1  S_1  
     e( 13 - 13) =      7.27666  eV     1   --> B_2  D_4  S_4  
     e( 14 - 14) =      7.81258  eV     1   --> B_1  D_3  S_3  
     e( 15 - 15) =      8.32457  eV     1   --> A_1  D_1  S_1  
     e( 16 - 16) =      9.06775  eV     1   --> B_2  D_4  S_4  
     e( 17 - 17) =     10.51074  eV     1   --> A_1  D_1  S_1  
     e( 18 - 18) =     12.23117  eV     1   --> B_2  D_4  S_4  
     e( 19 - 19) =     13.44857  eV     1   --> A_1  D_1  S_1  
     e( 20 - 20) =     16.54249  eV     1   --> B_2  D_4  S_4  

 **************************************************************************

 **************************************************************************

                    xk=(   0.09500,   0.05485,   0.00000  )

     Band symmetry, C_2v (mm2)  point group:

     e(  1 -  1) =    -21.62620  eV     1   --> A_1  D_1  S_1  
     e(  2 -  2) =     -9.43923  eV     1   --> B_2  D_4  S_4  
     e(  3 -  3) =     -6.45559  eV     1   --> A_1  D_1  S_1  
     e(  4 -  4) =     -6.08926  eV     1   --> B_1  D_3  S_3  
     e(  5 -  5) =      0.77170  eV     1   --> A_1  D_1  S_1  
     e(  6 -  6) =      1.81274  eV     1   --> B_2  D_4  S_4  
     e(  7 -  7) =      2.18816  eV     1   --> A_1  D_1  S_1  
     e(  8 -  8) =      3.04933  eV     1   --> B_2  D_4  S_4  
     e(  9 -  9) =      3.45561  eV     1   --> A_1  D_1  S_1  
     e( 10 - 10) =      5.01030  eV     1   --> B_2  D_4  S_4  
     e( 11 - 11) =      5.60382  eV     1   --> A_1  D_1  S_1  
     e( 12 - 12) =      7.02192  eV     1   --> A_1  D_1  S_1  
     e( 13 - 13) =      7.27150  eV     1   --> B_2  D_4  S_4  
     e( 14 - 14) =      7.88807  eV     1   --> B_1  D_3  S_3  
     e( 15 - 15) =      8.36233  eV     1   --> A_1  D_1  S_1  
     e( 16 - 16) =      9.05973  eV     1   --> B_2  D_4  S_4  
     e( 17 - 17) =     10.55209  eV     1   --> A_1  D_1  S_1  
     e( 18 - 18) =     12.24952  eV     1   --> B_2  D_4  S_4  
     e( 19 - 19) =     13.48076  eV     1   --> A_1  D_1  S_1  
     e( 20 - 20) =     16.56063  eV     1   --> B_2  D_4  S_4  

 **************************************************************************

 **************************************************************************

                    xk=(   0.10000,   0.05774,   0.00000  )

     Band symmetry, C_2v (mm2)  point group:

     e(  1 -  1) =    -21.60765  eV     1   --> A_1  D_1  S_1  
     e(  2 -  2) =     -9.41401  eV     1   --> B_2  D_4  S_4  
     e(  3 -  3) =     -6.52637  eV     1   --> A_1  D_1  S_1  
     e(  4 -  4) =     -6.12256  eV     1   --> B_1  D_3  S_3  
     e(  5 -  5) =      0.80314  eV     1   --> A_1  D_1  S_1  
     e(  6 -  6) =      1.84186  eV     1   --> B_2  D_4  S_4  
     e(  7 -  7) =      2.21936  eV     1   --> A_1  D_1  S_1  
     e(  8 -  8) =      3.07857  eV     1   --> B_2  D_4  S_4  
     e(  9 -  9) =      3.48677  eV     1   --> A_1  D_1  S_1  
     e( 10 - 10) =      5.03462  eV     1   --> B_2  D_4  S_4  
     e( 11 - 11) =      5.63373  eV     1   --> A_1  D_1  S_1  
     e( 12 - 12) =      7.01318  eV     1   --> A_1  D_1  S_1  
     e( 13 - 13) =      7.26484  eV     1   --> B_2  D_4  S_4  
     e( 14 - 14) =      7.96706  eV     1   --> B_1  D_3  S_3  
     e( 15 - 15) =      8.40180  eV     1   --> A_1  D_1  S_1  
     e( 16 - 16) =      9.05280  eV     1   --> B_2  D_4  S_4  
     e( 17 - 17) =     10.59531  eV     1   --> A_1  D_1  S_1  
     e( 18 - 18) =     12.26917  eV     1   --> B_2  D_4  S_4  
     e( 19 - 19) =     13.51453  eV     1   --> A_1  D_1  S_1  
     e( 20 - 20) =     16.57958  eV     1   --> B_2  D_4  S_4  

 **************************************************************************

 **************************************************************************

                    xk=(   0.10500,   0.06062,   0.00000  )

     Band symmetry, C_2v (mm2)  point group:

     e(  1 -  1) =    -21.58817  eV     1   --> A_1  D_1  S_1  
     e(  2 -  2) =     -9.38754  eV     1   --> B_2  D_4  S_4  
     e(  3 -  3) =     -6.59983  eV     1   --> A_1  D_1  S_1  
     e(  4 -  4) =     -6.15700  eV     1   --> B_1  D_3  S_3  
     e(  5 -  5) =      0.83610  eV     1   --> A_1  D_1  S_1  
     e(  6 -  6) =      1.87243  eV     1   --> B_2  D_4  S_4  
     e(  7 -  7) =      2.25214  eV     1   --> A_1  D_1  S_1  
     e(  8 -  8) =      3.10924  eV     1   --> B_2  D_4  S_4  
     e(  9 -  9) =      3.51948  eV     1   --> A_1  D_1  S_1  
     e( 10 - 10) =      5.05985  eV     1   --> B_2  D_4  S_4  
     e( 11 - 11) =      5.66490  eV     1   --> A_1  D_1  S_1  
     e( 12 - 12) =      7.00450  eV     1   --> A_1  D_1  S_1  
     e( 13 - 13) =      7.25649  eV     1   --> B_2  D_4  S_4  
     e( 14 - 14) =      8.04951  eV     1   --> B_1  D_3  S_3  
     e( 15 - 15) =      8.44296  eV     1   --> A_1  D_1  S_1  
     e( 16 - 16) =      9.04718  eV     1   --> B_2  D_4  S_4  
     e( 17 - 17) =     10.64035  eV     1   --> A_1  D_1  S_1  
     e( 18 - 18) =     12.29014  eV     1   --> B_2  D_4  S_4  
     e( 19 - 19) =     13.54985  eV     1   --> A_1  D_1  S_1  
     e( 20 - 20) =     16.59929  eV     1   --> B_2  D_4  S_4  

 **************************************************************************

 **************************************************************************

                    xk=(   0.11000,   0.06351,   0.00000  )

     Band symmetry, C_2v (mm2)  point group:

     e(  1 -  1) =    -21.56776  eV     1   --> A_1  D_1  S_1  
     e(  2 -  2) =     -9.35982  eV     1   --> B_2  D_4  S_4  
     e(  3 -  3) =     -6.67594  eV     1   --> A_1  D_1  S_1  
     e(  4 -  4) =     -6.19260  eV     1   --> B_1  D_3  S_3  
     e(  5 -  5) =      0.87055  eV     1   --> A_1  D_1  S_1  
     e(  6 -  6) =      1.90442  eV     1   --> B_2  D_4  S_4  
     e(  7 -  7) =      2.28652  eV     1   --> A_1  D_1  S_1  
     e(  8 -  8) =      3.14135  eV     1   --> B_2  D_4  S_4  
     e(  9 -  9) =      3.55373  eV     1   --> A_1  D_1  S_1  
     e( 10 - 10) =      5.08593  eV     1   --> B_2  D_4  S_4  
     e( 11 - 11) =      5.69728  eV     1   --> A_1  D_1  S_1  
     e( 12 - 12) =      6.99594  eV     1   --> A_1  D_1  S_1  
     e( 13 - 13) =      7.24634  eV     1   --> B_2  D_4  S_4  
     e( 14 - 14) =      8.13527  eV     1   --> B_1  D_3  S_3  
     e( 15 - 15) =      8.48576  eV     1   --> A_1  D_1  S_1  
     e( 16 - 16) =      9.04310  eV     1   --> B_2  D_4  S_4  
     e( 17 - 17) =     10.68714  eV     1   --> A_1  D_1  S_1  
     e( 18 - 18) =     12.31246  eV     1   --> B_2  D_4  S_4  
     e( 19 - 19) =     13.58669  eV     1   --> A_1  D_1  S_1  
     e( 20 - 20) =     16.61971  eV     1   --> B_2  D_4  S_4  

 **************************************************************************

 **************************************************************************

                    xk=(   0.11500,   0.06640,   0.00000  )

     Band symmetry, C_2v (mm2)  point group:

     e(  1 -  1) =    -21.54644  eV     1   --> A_1  D_1  S_1  
     e(  2 -  2) =     -9.33082  eV     1   --> B_2  D_4  S_4  
     e(  3 -  3) =     -6.75463  eV     1   --> A_1  D_1  S_1  
     e(  4 -  4) =     -6.22928  eV     1   --> B_1  D_3  S_3  
     e(  5 -  5) =      0.90650  eV     1   --> A_1  D_1  S_1  
     e(  6 -  6) =      1.93785  eV     1   --> B_2  D_4  S_4  
     e(  7 -  7) =      2.32249  eV     1   --> A_1  D_1  S_1  
     e(  8 -  8) =      3.17488  eV     1   --> B_2  D_4  S_4  
     e(  9 -  9) =      3.58951  eV     1   --> A_1  D_1  S_1  
     e( 10 - 10) =      5.11279  eV     1   --> B_2  D_4  S_4  
     e( 11 - 11) =      5.73082  eV     1   --> A_1  D_1  S_1  
     e( 12 - 12) =      6.98755  eV     1   --> A_1  D_1  S_1  
     e( 13 - 13) =      7.23433  eV     1   --> B_2  D_4  S_4  
     e( 14 - 14) =      8.22428  eV     1   --> B_1  D_3  S_3  
     e( 15 - 15) =      8.53016  eV     1   --> A_1  D_1  S_1  
     e( 16 - 16) =      9.04082  eV     1   --> B_2  D_4  S_4  
     e( 17 - 17) =     10.73560  eV     1   --> A_1  D_1  S_1  
     e( 18 - 18) =     12.33614  eV     1   --> B_2  D_4  S_4  
     e( 19 - 19) =     13.62504  eV     1   --> A_1  D_1  S_1  
     e( 20 - 20) =     16.64077  eV     1   --> B_2  D_4  S_4  

 **************************************************************************

 **************************************************************************

                    xk=(   0.12000,   0.06928,   0.00000  )

     Band symmetry, C_2v (mm2)  point group:

     e(  1 -  1) =    -21.52420  eV     1   --> A_1  D_1  S_1  
     e(  2 -  2) =     -9.30057  eV     1   --> B_2  D_4  S_4  
     e(  3 -  3) =     -6.83562  eV     1   --> A_1  D_1  S_1  
     e(  4 -  4) =     -6.26687  eV     1   --> B_1  D_3  S_3  
     e(  5 -  5) =      0.94394  eV     1   --> A_1  D_1  S_1  
     e(  6 -  6) =      1.97268  eV     1   --> B_2  D_4  S_4  
     e(  7 -  7) =      2.36004  eV     1   --> A_1  D_1  S_1  
     e(  8 -  8) =      3.20982  eV     1   --> B_2  D_4  S_4  
     e(  9 -  9) =      3.62683  eV     1   --> A_1  D_1  S_1  
     e( 10 - 10) =      5.14033  eV     1   --> B_2  D_4  S_4  
     e( 11 - 11) =      5.76545  eV     1   --> A_1  D_1  S_1  
     e( 12 - 12) =      6.97949  eV     1   --> A_1  D_1  S_1  
     e( 13 - 13) =      7.22036  eV     1   --> B_2  D_4  S_4  
     e( 14 - 14) =      8.31651  eV     1   --> B_1  D_3  S_3  
     e( 15 - 15) =      8.57615  eV     1   --> A_1  D_1  S_1  
     e( 16 - 16) =      9.04056  eV     1   --> B_2  D_4  S_4  
     e( 17 - 17) =     10.78573  eV     1   --> A_1  D_1  S_1  
     e( 18 - 18) =     12.36121  eV     1   --> B_2  D_4  S_4  
     e( 19 - 19) =     13.66487  eV     1   --> A_1  D_1  S_1  
     e( 20 - 20) =     16.66240  eV     1   --> B_2  D_4  S_4  

 **************************************************************************

 **************************************************************************

                    xk=(   0.12500,   0.07217,   0.00000  )

     Band symmetry, C_2v (mm2)  point group:

     e(  1 -  1) =    -21.50106  eV     1   --> A_1  D_1  S_1  
     e(  2 -  2) =     -9.26908  eV     1   --> B_2  D_4  S_4  
     e(  3 -  3) =     -6.91894  eV     1   --> A_1  D_1  S_1  
     e(  4 -  4) =     -6.30537  eV     1   --> B_1  D_3  S_3  
     e(  5 -  5) =      0.98285  eV     1   --> A_1  D_1  S_1  
     e(  6 -  6) =      2.00891  eV     1   --> B_2  D_4  S_4  
     e(  7 -  7) =      2.39919  eV     1   --> A_1  D_1  S_1  
     e(  8 -  8) =      3.24615  eV     1   --> B_2  D_4  S_4  
     e(  9 -  9) =      3.66568  eV     1   --> A_1  D_1  S_1  
     e( 10 - 10) =      5.16843  eV     1   --> B_2  D_4  S_4  
     e( 11 - 11) =      5.80109  eV     1   --> A_1  D_1  S_1  
     e( 12 - 12) =      6.97182  eV     1   --> A_1  D_1  S_1  
     e( 13 - 13) =      7.20438  eV     1   --> B_2  D_4  S_4  
     e( 14 - 14) =      8.41185  eV     1   --> B_1  D_3  S_3  
     e( 15 - 15) =      8.62369  eV     1   --> A_1  D_1  S_1  
     e( 16 - 16) =      9.04251  eV     1   --> B_2  D_4  S_4  
     e( 17 - 17) =     10.83745  eV     1   --> A_1  D_1  S_1  
     e( 18 - 18) =     12.38768  eV     1   --> B_2  D_4  S_4  
     e( 19 - 19) =     13.70614  eV     1   --> A_1  D_1  S_1  
     e( 20 - 20) =     16.68452  eV     1   --> B_2  D_4  S_4  

 **************************************************************************

 **************************************************************************

                    xk=(   0.13000,   0.07506,   0.00000  )

     Band symmetry, C_2v (mm2)  point group:

     e(  1 -  1) =    -21.47700  eV     1   --> A_1  D_1  S_1  
     e(  2 -  2) =     -9.23635  eV     1   --> B_2  D_4  S_4  
     e(  3 -  3) =     -7.00443  eV     1   --> A_1  D_1  S_1  
     e(  4 -  4) =     -6.34471  eV     1   --> B_1  D_3  S_3  
     e(  5 -  5) =      1.02323  eV     1   --> A_1  D_1  S_1  
     e(  6 -  6) =      2.04652  eV     1   --> B_2  D_4  S_4  
     e(  7 -  7) =      2.43992  eV     1   --> A_1  D_1  S_1  
     e(  8 -  8) =      3.28385  eV     1   --> B_2  D_4  S_4  
     e(  9 -  9) =      3.70605  eV     1   --> A_1  D_1  S_1  
     e( 10 - 10) =      5.19695  eV     1   --> B_2  D_4  S_4  
     e( 11 - 11) =      5.83766  eV     1   --> A_1  D_1  S_1  
     e( 12 - 12) =      6.96466  eV     1   --> A_1  D_1  S_1  
     e( 13 - 13) =      7.18638  eV     1   --> B_2  D_4  S_4  
     e( 14 - 14) =      8.51023  eV     1   --> B_1  D_3  S_3  
     e( 15 - 15) =      8.67276  eV     1   --> A_1  D_1  S_1  
     e( 16 - 16) =      9.04685  eV     1   --> B_2  D_4  S_4  
     e( 17 - 17) =     10.89070  eV     1   --> A_1  D_1  S_1  
     e( 18 - 18) =     12.41555  eV     1   --> B_2  D_4  S_4  
     e( 19 - 19) =     13.74884  eV     1   --> A_1  D_1  S_1  
     e( 20 - 20) =     16.70702  eV     1   --> B_2  D_4  S_4  

 **************************************************************************

 **************************************************************************

                    xk=(   0.13500,   0.07794,   0.00000  )

     Band symmetry, C_2v (mm2)  point group:

     e(  1 -  1) =    -21.45205  eV     1   --> A_1  D_1  S_1  
     e(  2 -  2) =     -9.20237  eV     1   --> B_2  D_4  S_4  
     e(  3 -  3) =     -7.09189  eV     1   --> A_1  D_1  S_1  
     e(  4 -  4) =     -6.38482  eV     1   --> B_1  D_3  S_3  
     e(  5 -  5) =      1.06508  eV     1   --> A_1  D_1  S_1  
     e(  6 -  6) =      2.08550  eV     1   --> B_2  D_4  S_4  
     e(  7 -  7) =      2.48224  eV     1   --> A_1  D_1  S_1  
     e(  8 -  8) =      3.32290  eV     1   --> B_2  D_4  S_4  
     e(  9 -  9) =      3.74794  eV     1   --> A_1  D_1  S_1  
     e( 10 - 10) =      5.22576  eV     1   --> B_2  D_4  S_4  
     e( 11 - 11) =      5.87505  eV     1   --> A_1  D_1  S_1  
     e( 12 - 12) =      6.95818  eV     1   --> A_1  D_1  S_1  
     e( 13 - 13) =      7.16651  eV     1   --> B_2  D_4  S_4  
     e( 14 - 14) =      8.61155  eV     1   --> B_1  D_3  S_3  
     e( 15 - 15) =      8.72334  eV     1   --> A_1  D_1  S_1  
     e( 16 - 16) =      9.05375  eV     1   --> B_2  D_4  S_4  
     e( 17 - 17) =     10.94546  eV     1   --> A_1  D_1  S_1  
     e( 18 - 18) =     12.44483  eV     1   --> B_2  D_4  S_4  
     e( 19 - 19) =     13.79294  eV     1   --> A_1  D_1  S_1  
     e( 20 - 20) =     16.72979  eV     1   --> B_2  D_4  S_4  

 **************************************************************************

 **************************************************************************

                    xk=(   0.14000,   0.08083,   0.00000  )

     Band symmetry, C_2v (mm2)  point group:

     e(  1 -  1) =    -21.42621  eV     1   --> A_1  D_1  S_1  
     e(  2 -  2) =     -9.16717  eV     1   --> B_2  D_4  S_4  
     e(  3 -  3) =     -7.18137  eV     1   --> A_1  D_1  S_1  
     e(  4 -  4) =     -6.42564  eV     1   --> B_1  D_3  S_3  
     e(  5 -  5) =      1.10838  eV     1   --> A_1  D_1  S_1  
     e(  6 -  6) =      2.12581  eV     1   --> B_2  D_4  S_4  
     e(  7 -  7) =      2.52615  eV     1   --> A_1  D_1  S_1  
     e(  8 -  8) =      3.36329  eV     1   --> B_2  D_4  S_4  
     e(  9 -  9) =      3.79133  eV     1   --> A_1  D_1  S_1  
     e( 10 - 10) =      5.25464  eV     1   --> B_2  D_4  S_4  
     e( 11 - 11) =      5.91313  eV     1   --> A_1  D_1  S_1  
     e( 12 - 12) =      6.95246  eV     1   --> A_1  D_1  S_1  
     e( 13 - 13) =      7.14480  eV     1   --> B_2  D_4  S_4  
     e( 14 - 14) =      8.71572  eV     1   --> B_1  D_3  S_3  
     e( 15 - 15) =      8.77539  eV     1   --> A_1  D_1  S_1  
     e( 16 - 16) =      9.06334  eV     1   --> B_2  D_4  S_4  
     e( 17 - 17) =     11.00163  eV     1   --> A_1  D_1  S_1  
     e( 18 - 18) =     12.47553  eV     1   --> B_2  D_4  S_4  
     e( 19 - 19) =     13.83841  eV     1   --> A_1  D_1  S_1  
     e( 20 - 20) =     16.75270  eV     1   --> B_2  D_4  S_4  

 **************************************************************************

 **************************************************************************

                    xk=(   0.14500,   0.08372,   0.00000  )

     Band symmetry, C_2v (mm2)  point group:

     e(  1 -  1) =    -21.39947  eV     1   --> A_1  D_1  S_1  
     e(  2 -  2) =     -9.13076  eV     1   --> B_2  D_4  S_4  
     e(  3 -  3) =     -7.27269  eV     1   --> A_1  D_1  S_1  
     e(  4 -  4) =     -6.46713  eV     1   --> B_1  D_3  S_3  
     e(  5 -  5) =      1.15313  eV     1   --> A_1  D_1  S_1  
     e(  6 -  6) =      2.16744  eV     1   --> B_2  D_4  S_4  
     e(  7 -  7) =      2.57164  eV     1   --> A_1  D_1  S_1  
     e(  8 -  8) =      3.40496  eV     1   --> B_2  D_4  S_4  
     e(  9 -  9) =      3.83622  eV     1   --> A_1  D_1  S_1  
     e( 10 - 10) =      5.28340  eV     1   --> B_2  D_4  S_4  
     e( 11 - 11) =      5.95175  eV     1   --> A_1  D_1  S_1  
     e( 12 - 12) =      6.94771  eV     1   --> A_1  D_1  S_1  
     e( 13 - 13) =      7.12147  eV     1   --> B_2  D_4  S_4  
     e( 14 - 14) =      8.82267  eV     1   --> B_1  D_3  S_3  
     e( 15 - 15) =      8.82888  eV     1   --> A_1  D_1  S_1  
     e( 16 - 16) =      9.07571  eV     1   --> B_2  D_4  S_4  
     e( 17 - 17) =     11.05916  eV     1   --> A_1  D_1  S_1  
     e( 18 - 18) =     12.50765  eV     1   --> B_2  D_4  S_4  
     e( 19 - 19) =     13.88521  eV     1   --> A_1  D_1  S_1  
     e( 20 - 20) =     16.77559  eV     1   --> B_2  D_4  S_4  

 **************************************************************************

 **************************************************************************

                    xk=(   0.15000,   0.08660,   0.00000  )

     Band symmetry, C_2v (mm2)  point group:

     e(  1 -  1) =    -21.37185  eV     1   --> A_1  D_1  S_1  
     e(  2 -  2) =     -9.09314  eV     1   --> B_2  D_4  S_4  
     e(  3 -  3) =     -7.36570  eV     1   --> A_1  D_1  S_1  
     e(  4 -  4) =     -6.50918  eV     1   --> B_1  D_3  S_3  
     e(  5 -  5) =      1.19933  eV     1   --> A_1  D_1  S_1  
     e(  6 -  6) =      2.21036  eV     1   --> B_2  D_4  S_4  
     e(  7 -  7) =      2.61872  eV     1   --> A_1  D_1  S_1  
     e(  8 -  8) =      3.44791  eV     1   --> B_2  D_4  S_4  
     e(  9 -  9) =      3.88261  eV     1   --> A_1  D_1  S_1  
     e( 10 - 10) =      5.31178  eV     1   --> B_2  D_4  S_4  
     e( 11 - 11) =      5.99075  eV     1   --> A_1  D_1  S_1  
     e( 12 - 12) =      6.94414  eV     1   --> A_1  D_1  S_1  
     e( 13 - 13) =      7.09681  eV     1   --> B_2  D_4  S_4  
     e( 14 - 14) =      8.88381  eV     1   --> A_1  D_1  S_1  
     e( 15 - 15) =      8.93233  eV     1   --> B_1  D_3  S_3  
     e( 16 - 16) =      9.09093  eV     1   --> B_2  D_4  S_4  
     e( 17 - 17) =     11.11802  eV     1   --> A_1  D_1  S_1  
     e( 18 - 18) =     12.54117  eV     1   --> B_2  D_4  S_4  
     e( 19 - 19) =     13.93331  eV     1   --> A_1  D_1  S_1  
     e( 20 - 20) =     16.79827  eV     1   --> B_2  D_4  S_4  

 **************************************************************************

 **************************************************************************

                    xk=(   0.15500,   0.08949,   0.00000  )

     Band symmetry, C_2v (mm2)  point group:

     e(  1 -  1) =    -21.34336  eV     1   --> A_1  D_1  S_1  
     e(  2 -  2) =     -9.05432  eV     1   --> B_2  D_4  S_4  
     e(  3 -  3) =     -7.46046  eV     1   --> A_1  D_1  S_1  
     e(  4 -  4) =     -6.55181  eV     1   --> B_1  D_3  S_3  
     e(  5 -  5) =      1.24695  eV     1   --> A_1  D_1  S_1  
     e(  6 -  6) =      2.25454  eV     1   --> B_2  D_4  S_4  
     e(  7 -  7) =      2.66738  eV     1   --> A_1  D_1  S_1  
     e(  8 -  8) =      3.49208  eV     1   --> B_2  D_4  S_4  
     e(  9 -  9) =      3.93048  eV     1   --> A_1  D_1  S_1  
     e( 10 - 10) =      5.33950  eV     1   --> B_2  D_4  S_4  
     e( 11 - 11) =      6.02991  eV     1   --> A_1  D_1  S_1  
     e( 12 - 12) =      6.94193  eV     1   --> A_1  D_1  S_1  
     e( 13 - 13) =      7.07116  eV     1   --> B_2  D_4  S_4  
     e( 14 - 14) =      8.94012  eV     1   --> A_1  D_1  S_1  
     e( 15 - 15) =      9.04456  eV     1   --> B_1  D_3  S_3  
     e( 16 - 16) =      9.10906  eV     1   --> B_2  D_4  S_4  
     e( 17 - 17) =     11.17807  eV     1   --> A_1  D_1  S_1  
     e( 18 - 18) =     12.57609  eV     1   --> B_2  D_4  S_4  
     e( 19 - 19) =     13.98269  eV     1   --> A_1  D_1  S_1  
     e( 20 - 20) =     16.82053  eV     1   --> B_2  D_4  S_4  

 **************************************************************************

 **************************************************************************

                    xk=(   0.16000,   0.09238,   0.00000  )

     Band symmetry, C_2v (mm2)  point group:

     e(  1 -  1) =    -21.31400  eV     1   --> A_1  D_1  S_1  
     e(  2 -  2) =     -9.01429  eV     1   --> B_2  D_4  S_4  
     e(  3 -  3) =     -7.55670  eV     1   --> A_1  D_1  S_1  
     e(  4 -  4) =     -6.59489  eV     1   --> B_1  D_3  S_3  
     e(  5 -  5) =      1.29601  eV     1   --> A_1  D_1  S_1  
     e(  6 -  6) =      2.29994  eV     1   --> B_2  D_4  S_4  
     e(  7 -  7) =      2.71762  eV     1   --> A_1  D_1  S_1  
     e(  8 -  8) =      3.53743  eV     1   --> B_2  D_4  S_4  
     e(  9 -  9) =      3.97984  eV     1   --> A_1  D_1  S_1  
     e( 10 - 10) =      5.36622  eV     1   --> B_2  D_4  S_4  
     e( 11 - 11) =      6.06899  eV     1   --> A_1  D_1  S_1  
     e( 12 - 12) =      6.94141  eV     1   --> A_1  D_1  S_1  
     e( 13 - 13) =      7.04500  eV     1   --> B_2  D_4  S_4  
     e( 14 - 14) =      8.99783  eV     1   --> A_1  D_1  S_1  
     e( 15 - 15) =      9.13012  eV     1   --> B_2  D_4  S_4  
     e( 16 - 16) =      9.15933  eV     1   --> B_1  D_3  S_3  
     e( 17 - 17) =     11.23933  eV     1   --> A_1  D_1  S_1  
     e( 18 - 18) =     12.61240  eV     1   --> B_2  D_4  S_4  
     e( 19 - 19) =     14.03330  eV     1   --> A_1  D_1  S_1  
     e( 20 - 20) =     16.84212  eV     1   --> B_2  D_4  S_4  

 **************************************************************************

 **************************************************************************

                    xk=(   0.16500,   0.09526,   0.00000  )

     Band symmetry, C_2v (mm2)  point group:

     e(  1 -  1) =    -21.28378  eV     1   --> A_1  D_1  S_1  
     e(  2 -  2) =     -8.97310  eV     1   --> B_2  D_4  S_4  
     e(  3 -  3) =     -7.65445  eV     1   --> A_1  D_1  S_1  
     e(  4 -  4) =     -6.63836  eV     1   --> B_1  D_3  S_3  
     e(  5 -  5) =      1.34649  eV     1   --> A_1  D_1  S_1  
     e(  6 -  6) =      2.34652  eV     1   --> B_2  D_4  S_4  
     e(  7 -  7) =      2.76945  eV     1   --> A_1  D_1  S_1  
     e(  8 -  8) =      3.58391  eV     1   --> B_2  D_4  S_4  
     e(  9 -  9) =      4.03066  eV     1   --> A_1  D_1  S_1  
     e( 10 - 10) =      5.39153  eV     1   --> B_2  D_4  S_4  
     e( 11 - 11) =      6.10770  eV     1   --> A_1  D_1  S_1  
     e( 12 - 12) =      6.94286  eV     1   --> A_1  D_1  S_1  
     e( 13 - 13) =      7.01879  eV     1   --> B_2  D_4  S_4  
     e( 14 - 14) =      9.05688  eV     1   --> A_1  D_1  S_1  
     e( 15 - 15) =      9.15409  eV     1   --> B_2  D_4  S_4  
     e( 16 - 16) =      9.27657  eV     1   --> B_1  D_3  S_3  
     e( 17 - 17) =     11.30166  eV     1   --> A_1  D_1  S_1  
     e( 18 - 18) =     12.65009  eV     1   --> B_2  D_4  S_4  
     e( 19 - 19) =     14.08512  eV     1   --> A_1  D_1  S_1  
     e( 20 - 20) =     16.86275  eV     1   --> B_2  D_4  S_4  

 **************************************************************************

 **************************************************************************

                    xk=(   0.17000,   0.09815,   0.00000  )

     Band symmetry, C_2v (mm2)  point group:

     e(  1 -  1) =    -21.25270  eV     1   --> A_1  D_1  S_1  
     e(  2 -  2) =     -8.93071  eV     1   --> B_2  D_4  S_4  
     e(  3 -  3) =     -7.75357  eV     1   --> A_1  D_1  S_1  
     e(  4 -  4) =     -6.68216  eV     1   --> B_1  D_3  S_3  
     e(  5 -  5) =      1.39838  eV     1   --> A_1  D_1  S_1  
     e(  6 -  6) =      2.39424  eV     1   --> B_2  D_4  S_4  
     e(  7 -  7) =      2.82286  eV     1   --> A_1  D_1  S_1  
     e(  8 -  8) =      3.63146  eV     1   --> B_2  D_4  S_4  
     e(  9 -  9) =      4.08294  eV     1   --> A_1  D_1  S_1  
     e( 10 - 10) =      5.41505  eV     1   --> B_2  D_4  S_4  
     e( 11 - 11) =      6.14570  eV     1   --> A_1  D_1  S_1  
     e( 12 - 12) =      6.94663  eV     1   --> A_1  D_1  S_1  
     e( 13 - 13) =      6.99323  eV     1   --> B_2  D_4  S_4  
     e( 14 - 14) =      9.11726  eV     1   --> A_1  D_1  S_1  
     e( 15 - 15) =      9.18095  eV     1   --> B_2  D_4  S_4  
     e( 16 - 16) =      9.39619  eV     1   --> B_1  D_3  S_3  
     e( 17 - 17) =     11.36502  eV     1   --> A_1  D_1  S_1  
     e( 18 - 18) =     12.68912  eV     1   --> B_2  D_4  S_4  
     e( 19 - 19) =     14.13809  eV     1   --> A_1  D_1  S_1  
     e( 20 - 20) =     16.88210  eV     1   --> B_2  D_4  S_4  

 **************************************************************************

 **************************************************************************

                    xk=(   0.17500,   0.10104,   0.00000  )

     Band symmetry, C_2v (mm2)  point group:

     e(  1 -  1) =    -21.22078  eV     1   --> A_1  D_1  S_1  
     e(  2 -  2) =     -8.88714  eV     1   --> B_2  D_4  S_4  
     e(  3 -  3) =     -7.85382  eV     1   --> A_1  D_1  S_1  
     e(  4 -  4) =     -6.72627  eV     1   --> B_1  D_3  S_3  
     e(  5 -  5) =      1.45169  eV     1   --> A_1  D_1  S_1  
     e(  6 -  6) =      2.44304  eV     1   --> B_2  D_4  S_4  
     e(  7 -  7) =      2.87785  eV     1   --> A_1  D_1  S_1  
     e(  8 -  8) =      3.68000  eV     1   --> B_2  D_4  S_4  
     e(  9 -  9) =      4.13667  eV     1   --> A_1  D_1  S_1  
     e( 10 - 10) =      5.43629  eV     1   --> B_2  D_4  S_4  
     e( 11 - 11) =      6.18263  eV     1   --> A_1  D_1  S_1  
     e( 12 - 12) =      6.95319  eV     1   --> A_1  D_1  S_1  
     e( 13 - 13) =      6.96898  eV     1   --> B_2  D_4  S_4  
     e( 14 - 14) =      9.17902  eV     1   --> A_1  D_1  S_1  
     e( 15 - 15) =      9.21066  eV     1   --> B_2  D_4  S_4  
     e( 16 - 16) =      9.51807  eV     1   --> B_1  D_3  S_3  
     e( 17 - 17) =     11.42943  eV     1   --> A_1  D_1  S_1  
     e( 18 - 18) =     12.72949  eV     1   --> B_2  D_4  S_4  
     e( 19 - 19) =     14.19222  eV     1   --> A_1  D_1  S_1  
     e( 20 - 20) =     16.89977  eV     1   --> B_2  D_4  S_4  

 **************************************************************************

 **************************************************************************

                    xk=(   0.18000,   0.10392,   0.00000  )

     Band symmetry, C_2v (mm2)  point group:

     e(  1 -  1) =    -21.18803  eV     1   --> A_1  D_1  S_1  
     e(  2 -  2) =     -8.84243  eV     1   --> B_2  D_4  S_4  
     e(  3 -  3) =     -7.95536  eV     1   --> A_1  D_1  S_1  
     e(  4 -  4) =     -6.77065  eV     1   --> B_1  D_3  S_3  
     e(  5 -  5) =      1.50640  eV     1   --> A_1  D_1  S_1  
     e(  6 -  6) =      2.49285  eV     1   --> B_2  D_4  S_4  
     e(  7 -  7) =      2.93442  eV     1   --> A_1  D_1  S_1  
     e(  8 -  8) =      3.72945  eV     1   --> B_2  D_4  S_4  
     e(  9 -  9) =      4.19184  eV     1   --> A_1  D_1  S_1  
     e( 10 - 10) =      5.45471  eV     1   --> B_2  D_4  S_4  
     e( 11 - 11) =      6.21806  eV     1   --> A_1  D_1  S_1  
     e( 12 - 12) =      6.94678  eV     1   --> B_2  D_4  S_4  
     e( 13 - 13) =      6.96290  eV     1   --> A_1  D_1  S_1  
     e( 14 - 14) =      9.24204  eV     1   --> A_1  D_1  S_1  
     e( 15 - 15) =      9.24317  eV     1   --> B_2  D_4  S_4  
     e( 16 - 16) =      9.64211  eV     1   --> B_1  D_3  S_3  
     e( 17 - 17) =     11.49467  eV     1   --> A_1  D_1  S_1  
     e( 18 - 18) =     12.77116  eV     1   --> B_2  D_4  S_4  
     e( 19 - 19) =     14.24741  eV     1   --> A_1  D_1  S_1  
     e( 20 - 20) =     16.91532  eV     1   --> B_2  D_4  S_4  

 **************************************************************************

 **************************************************************************

                    xk=(   0.18500,   0.10681,   0.00000  )

     Band symmetry, C_2v (mm2)  point group:

     e(  1 -  1) =    -21.15444  eV     1   --> A_1  D_1  S_1  
     e(  2 -  2) =     -8.79656  eV     1   --> B_2  D_4  S_4  
     e(  3 -  3) =     -8.05800  eV     1   --> A_1  D_1  S_1  
     e(  4 -  4) =     -6.81522  eV     1   --> B_1  D_3  S_3  
     e(  5 -  5) =      1.56251  eV     1   --> A_1  D_1  S_1  
     e(  6 -  6) =      2.54360  eV     1   --> B_2  D_4  S_4  
     e(  7 -  7) =      2.99257  eV     1   --> A_1  D_1  S_1  
     e(  8 -  8) =      3.77969  eV     1   --> B_2  D_4  S_4  
     e(  9 -  9) =      4.24843  eV     1   --> A_1  D_1  S_1  
     e( 10 - 10) =      5.46984  eV     1   --> B_2  D_4  S_4  
     e( 11 - 11) =      6.25157  eV     1   --> A_1  D_1  S_1  
     e( 12 - 12) =      6.92748  eV     1   --> B_2  D_4  S_4  
     e( 13 - 13) =      6.97623  eV     1   --> A_1  D_1  S_1  
     e( 14 - 14) =      9.27842  eV     1   --> B_2  D_4  S_4  
     e( 15 - 15) =      9.30635  eV     1   --> A_1  D_1  S_1  
     e( 16 - 16) =      9.76827  eV     1   --> B_1  D_3  S_3  
     e( 17 - 17) =     11.56071  eV     1   --> A_1  D_1  S_1  
     e( 18 - 18) =     12.81409  eV     1   --> B_2  D_4  S_4  
     e( 19 - 19) =     14.30364  eV     1   --> A_1  D_1  S_1  
     e( 20 - 20) =     16.92825  eV     1   --> B_2  D_4  S_4  

 **************************************************************************

 **************************************************************************

                    xk=(   0.19000,   0.10970,   0.00000  )

     Band symmetry, C_2v (mm2)  point group:

     e(  1 -  1) =    -21.12004  eV     1   --> A_1  D_1  S_1  
     e(  2 -  2) =     -8.74955  eV     1   --> B_2  D_4  S_4  
     e(  3 -  3) =     -8.16162  eV     1   --> A_1  D_1  S_1  
     e(  4 -  4) =     -6.85992  eV     1   --> B_1  D_3  S_3  
     e(  5 -  5) =      1.62001  eV     1   --> A_1  D_1  S_1  
     e(  6 -  6) =      2.59518  eV     1   --> B_2  D_4  S_4  
     e(  7 -  7) =      3.05230  eV     1   --> A_1  D_1  S_1  
     e(  8 -  8) =      3.83060  eV     1   --> B_2  D_4  S_4  
     e(  9 -  9) =      4.30642  eV     1   --> A_1  D_1  S_1  
     e( 10 - 10) =      5.48116  eV     1   --> B_2  D_4  S_4  
     e( 11 - 11) =      6.28275  eV     1   --> A_1  D_1  S_1  
     e( 12 - 12) =      6.91190  eV     1   --> B_2  D_4  S_4  
     e( 13 - 13) =      6.99366  eV     1   --> A_1  D_1  S_1  
     e( 14 - 14) =      9.31632  eV     1   --> B_2  D_4  S_4  
     e( 15 - 15) =      9.37193  eV     1   --> A_1  D_1  S_1  
     e( 16 - 16) =      9.89647  eV     1   --> B_1  D_3  S_3  
     e( 17 - 17) =     11.62748  eV     1   --> A_1  D_1  S_1  
     e( 18 - 18) =     12.85825  eV     1   --> B_2  D_4  S_4  
     e( 19 - 19) =     14.36087  eV     1   --> A_1  D_1  S_1  
     e( 20 - 20) =     16.93798  eV     1   --> B_2  D_4  S_4  

 **************************************************************************

 **************************************************************************

                    xk=(   0.19500,   0.11258,   0.00000  )

     Band symmetry, C_2v (mm2)  point group:

     e(  1 -  1) =    -21.08483  eV     1   --> A_1  D_1  S_1  
     e(  2 -  2) =     -8.70142  eV     1   --> B_2  D_4  S_4  
     e(  3 -  3) =     -8.26612  eV     1   --> A_1  D_1  S_1  
     e(  4 -  4) =     -6.90472  eV     1   --> B_1  D_3  S_3  
     e(  5 -  5) =      1.67890  eV     1   --> A_1  D_1  S_1  
     e(  6 -  6) =      2.64750  eV     1   --> B_2  D_4  S_4  
     e(  7 -  7) =      3.11360  eV     1   --> A_1  D_1  S_1  
     e(  8 -  8) =      3.88203  eV     1   --> B_2  D_4  S_4  
     e(  9 -  9) =      4.36581  eV     1   --> A_1  D_1  S_1  
     e( 10 - 10) =      5.48830  eV     1   --> B_2  D_4  S_4  
     e( 11 - 11) =      6.31123  eV     1   --> A_1  D_1  S_1  
     e( 12 - 12) =      6.90084  eV     1   --> B_2  D_4  S_4  
     e( 13 - 13) =      7.01558  eV     1   --> A_1  D_1  S_1  
     e( 14 - 14) =      9.35682  eV     1   --> B_2  D_4  S_4  
     e( 15 - 15) =      9.43877  eV     1   --> A_1  D_1  S_1  
     e( 16 - 16) =     10.02660  eV     1   --> B_1  D_3  S_3  
     e( 17 - 17) =     11.69493  eV     1   --> A_1  D_1  S_1  
     e( 18 - 18) =     12.90361  eV     1   --> B_2  D_4  S_4  
     e( 19 - 19) =     14.41906  eV     1   --> A_1  D_1  S_1  
     e( 20 - 20) =     16.94391  eV     1   --> B_2  D_4  S_4  

 **************************************************************************

 **************************************************************************

                    xk=(   0.20000,   0.11547,   0.00000  )

     Band symmetry, C_2v (mm2)  point group:

     e(  1 -  1) =    -21.04882  eV     1   --> A_1  D_1  S_1  
     e(  2 -  2) =     -8.65215  eV     1   --> B_2  D_4  S_4  
     e(  3 -  3) =     -8.37145  eV     1   --> A_1  D_1  S_1  
     e(  4 -  4) =     -6.94954  eV     1   --> B_1  D_3  S_3  
     e(  5 -  5) =      1.73916  eV     1   --> A_1  D_1  S_1  
     e(  6 -  6) =      2.70042  eV     1   --> B_2  D_4  S_4  
     e(  7 -  7) =      3.17648  eV     1   --> A_1  D_1  S_1  
     e(  8 -  8) =      3.93378  eV     1   --> B_2  D_4  S_4  
     e(  9 -  9) =      4.42657  eV     1   --> A_1  D_1  S_1  
     e( 10 - 10) =      5.49099  eV     1   --> B_2  D_4  S_4  
     e( 11 - 11) =      6.33675  eV     1   --> A_1  D_1  S_1  
     e( 12 - 12) =      6.89504  eV     1   --> B_2  D_4  S_4  
     e( 13 - 13) =      7.04228  eV     1   --> A_1  D_1  S_1  
     e( 14 - 14) =      9.39982  eV     1   --> B_2  D_4  S_4  
     e( 15 - 15) =      9.50686  eV     1   --> A_1  D_1  S_1  
     e( 16 - 16) =     10.15859  eV     1   --> B_1  D_3  S_3  
     e( 17 - 17) =     11.76294  eV     1   --> A_1  D_1  S_1  
     e( 18 - 18) =     12.95010  eV     1   --> B_2  D_4  S_4  
     e( 19 - 19) =     14.47813  eV     1   --> A_1  D_1  S_1  
     e( 20 - 20) =     16.94537  eV     1   --> B_2  D_4  S_4  

 **************************************************************************

 **************************************************************************

                    xk=(   0.20500,   0.11836,   0.00000  )

     Band symmetry, C_2v (mm2)  point group:

     e(  1 -  1) =    -21.01203  eV     1   --> A_1  D_1  S_1  
     e(  2 -  2) =     -8.60180  eV     1   --> B_2  D_4  S_4  
     e(  3 -  3) =     -8.47755  eV     1   --> A_1  D_1  S_1  
     e(  4 -  4) =     -6.99433  eV     1   --> B_1  D_3  S_3  
     e(  5 -  5) =      1.80080  eV     1   --> A_1  D_1  S_1  
     e(  6 -  6) =      2.75377  eV     1   --> B_2  D_4  S_4  
     e(  7 -  7) =      3.24094  eV     1   --> A_1  D_1  S_1  
     e(  8 -  8) =      3.98562  eV     1   --> B_2  D_4  S_4  
     e(  9 -  9) =      4.48868  eV     1   --> A_1  D_1  S_1  
     e( 10 - 10) =      5.48914  eV     1   --> B_2  D_4  S_4  
     e( 11 - 11) =      6.35918  eV     1   --> A_1  D_1  S_1  
     e( 12 - 12) =      6.89506  eV     1   --> B_2  D_4  S_4  
     e( 13 - 13) =      7.07393  eV     1   --> A_1  D_1  S_1  
     e( 14 - 14) =      9.44526  eV     1   --> B_2  D_4  S_4  
     e( 15 - 15) =      9.57616  eV     1   --> A_1  D_1  S_1  
     e( 16 - 16) =     10.29239  eV     1   --> B_1  D_3  S_3  
     e( 17 - 17) =     11.83139  eV     1   --> A_1  D_1  S_1  
     e( 18 - 18) =     12.99767  eV     1   --> B_2  D_4  S_4  
     e( 19 - 19) =     14.53803  eV     1   --> A_1  D_1  S_1  
     e( 20 - 20) =     16.94168  eV     1   --> B_2  D_4  S_4  

 **************************************************************************

 **************************************************************************

                    xk=(   0.21000,   0.12124,   0.00000  )

     Band symmetry, C_2v (mm2)  point group:

     e(  1 -  1) =    -20.97446  eV     1   --> A_1  D_1  S_1  
     e(  2 -  2) =     -8.58435  eV     1   --> A_1  D_1  S_1  
     e(  3 -  3) =     -8.55036  eV     1   --> B_2  D_4  S_4  
     e(  4 -  4) =     -7.03912  eV     1   --> B_1  D_3  S_3  
     e(  5 -  5) =      1.86379  eV     1   --> A_1  D_1  S_1  
     e(  6 -  6) =      2.80735  eV     1   --> B_2  D_4  S_4  
     e(  7 -  7) =      3.30697  eV     1   --> A_1  D_1  S_1  
     e(  8 -  8) =      4.03725  eV     1   --> B_2  D_4  S_4  
     e(  9 -  9) =      4.55211  eV     1   --> A_1  D_1  S_1  
     e( 10 - 10) =      5.48296  eV     1   --> B_2  D_4  S_4  
     e( 11 - 11) =      6.37851  eV     1   --> A_1  D_1  S_1  
     e( 12 - 12) =      6.90133  eV     1   --> B_2  D_4  S_4  
     e( 13 - 13) =      7.11058  eV     1   --> A_1  D_1  S_1  
     e( 14 - 14) =      9.49305  eV     1   --> B_2  D_4  S_4  
     e( 15 - 15) =      9.64665  eV     1   --> A_1  D_1  S_1  
     e( 16 - 16) =     10.42783  eV     1   --> B_1  D_3  S_3  
     e( 17 - 17) =     11.90015  eV     1   --> A_1  D_1  S_1  
     e( 18 - 18) =     13.04625  eV     1   --> B_2  D_4  S_4  
     e( 19 - 19) =     14.59868  eV     1   --> A_1  D_1  S_1  
     e( 20 - 20) =     16.93216  eV     1   --> B_2  D_4  S_4  

 **************************************************************************

 **************************************************************************

                    xk=(   0.21500,   0.12413,   0.00000  )

     Band symmetry, C_2v (mm2)  point group:

     e(  1 -  1) =    -20.93613  eV     1   --> A_1  D_1  S_1  
     e(  2 -  2) =     -8.69163  eV     1   --> A_1  D_1  S_1  
     e(  3 -  3) =     -8.49782  eV     1   --> B_2  D_4  S_4  
     e(  4 -  4) =     -7.08374  eV     1   --> B_1  D_3  S_3  
     e(  5 -  5) =      1.92814  eV     1   --> A_1  D_1  S_1  
     e(  6 -  6) =      2.86093  eV     1   --> B_2  D_4  S_4  
     e(  7 -  7) =      3.37457  eV     1   --> A_1  D_1  S_1  
     e(  8 -  8) =      4.08837  eV     1   --> B_2  D_4  S_4  
     e(  9 -  9) =      4.61683  eV     1   --> A_1  D_1  S_1  
     e( 10 - 10) =      5.47299  eV     1   --> B_2  D_4  S_4  
     e( 11 - 11) =      6.39491  eV     1   --> A_1  D_1  S_1  
     e( 12 - 12) =      6.91408  eV     1   --> B_2  D_4  S_4  
     e( 13 - 13) =      7.15214  eV     1   --> A_1  D_1  S_1  
     e( 14 - 14) =      9.54312  eV     1   --> B_2  D_4  S_4  
     e( 15 - 15) =      9.71838  eV     1   --> A_1  D_1  S_1  
     e( 16 - 16) =     10.56495  eV     1   --> B_1  D_3  S_3  
     e( 17 - 17) =     11.96927  eV     1   --> A_1  D_1  S_1  
     e( 18 - 18) =     13.09579  eV     1   --> B_2  D_4  S_4  
     e( 19 - 19) =     14.66005  eV     1   --> A_1  D_1  S_1  
     e( 20 - 20) =     16.91624  eV     1   --> B_2  D_4  S_4  

 **************************************************************************

 **************************************************************************

                    xk=(   0.22000,   0.12702,   0.00000  )

     Band symmetry, C_2v (mm2)  point group:

     e(  1 -  1) =    -20.89706  eV     1   --> A_1  D_1  S_1  
     e(  2 -  2) =     -8.79943  eV     1   --> A_1  D_1  S_1  
     e(  3 -  3) =     -8.44425  eV     1   --> B_2  D_4  S_4  
     e(  4 -  4) =     -7.12823  eV     1   --> B_1  D_3  S_3  
     e(  5 -  5) =      1.99383  eV     1   --> A_1  D_1  S_1  
     e(  6 -  6) =      2.91420  eV     1   --> B_2  D_4  S_4  
     e(  7 -  7) =      3.44373  eV     1   --> A_1  D_1  S_1  
     e(  8 -  8) =      4.13851  eV     1   --> B_2  D_4  S_4  
     e(  9 -  9) =      4.68280  eV     1   --> A_1  D_1  S_1  
     e( 10 - 10) =      5.45998  eV     1   --> B_2  D_4  S_4  
     e( 11 - 11) =      6.40864  eV     1   --> A_1  D_1  S_1  
     e( 12 - 12) =      6.93333  eV     1   --> B_2  D_4  S_4  
     e( 13 - 13) =      7.19837  eV     1   --> A_1  D_1  S_1  
     e( 14 - 14) =      9.59540  eV     1   --> B_2  D_4  S_4  
     e( 15 - 15) =      9.79128  eV     1   --> A_1  D_1  S_1  
     e( 16 - 16) =     10.70359  eV     1   --> B_1  D_3  S_3  
     e( 17 - 17) =     12.03850  eV     1   --> A_1  D_1  S_1  
     e( 18 - 18) =     13.14620  eV     1   --> B_2  D_4  S_4  
     e( 19 - 19) =     14.72204  eV     1   --> A_1  D_1  S_1  
     e( 20 - 20) =     16.89341  eV     1   --> B_2  D_4  S_4  

 **************************************************************************

 **************************************************************************

                    xk=(   0.22500,   0.12990,   0.00000  )

     Band symmetry, C_2v (mm2)  point group:

     e(  1 -  1) =    -20.85725  eV     1   --> A_1  D_1  S_1  
     e(  2 -  2) =     -8.90774  eV     1   --> A_1  D_1  S_1  
     e(  3 -  3) =     -8.38964  eV     1   --> B_2  D_4  S_4  
     e(  4 -  4) =     -7.17257  eV     1   --> B_1  D_3  S_3  
     e(  5 -  5) =      2.06085  eV     1   --> A_1  D_1  S_1  
     e(  6 -  6) =      2.96679  eV     1   --> B_2  D_4  S_4  
     e(  7 -  7) =      3.51447  eV     1   --> A_1  D_1  S_1  
     e(  8 -  8) =      4.18722  eV     1   --> B_2  D_4  S_4  
     e(  9 -  9) =      4.74999  eV     1   --> A_1  D_1  S_1  
     e( 10 - 10) =      5.44510  eV     1   --> B_2  D_4  S_4  
     e( 11 - 11) =      6.42004  eV     1   --> A_1  D_1  S_1  
     e( 12 - 12) =      6.95893  eV     1   --> B_2  D_4  S_4  
     e( 13 - 13) =      7.24898  eV     1   --> A_1  D_1  S_1  
     e( 14 - 14) =      9.64981  eV     1   --> B_2  D_4  S_4  
     e( 15 - 15) =      9.86530  eV     1   --> A_1  D_1  S_1  
     e( 16 - 16) =     10.84361  eV     1   --> B_1  D_3  S_3  
     e( 17 - 17) =     12.10766  eV     1   --> A_1  D_1  S_1  
     e( 18 - 18) =     13.19737  eV     1   --> B_2  D_4  S_4  
     e( 19 - 19) =     14.78453  eV     1   --> A_1  D_1  S_1  
     e( 20 - 20) =     16.86338  eV     1   --> B_2  D_4  S_4  

 **************************************************************************

 **************************************************************************

                    xk=(   0.23000,   0.13279,   0.00000  )

     Band symmetry, C_2v (mm2)  point group:

     e(  1 -  1) =    -20.81672  eV     1   --> A_1  D_1  S_1  
     e(  2 -  2) =     -9.01635  eV     1   --> A_1  D_1  S_1  
     e(  3 -  3) =     -8.33399  eV     1   --> B_2  D_4  S_4  
     e(  4 -  4) =     -7.21665  eV     1   --> B_1  D_3  S_3  
     e(  5 -  5) =      2.12920  eV     1   --> A_1  D_1  S_1  
     e(  6 -  6) =      3.01825  eV     1   --> B_2  D_4  S_4  
     e(  7 -  7) =      3.58677  eV     1   --> A_1  D_1  S_1  
     e(  8 -  8) =      4.23393  eV     1   --> B_2  D_4  S_4  
     e(  9 -  9) =      4.81833  eV     1   --> A_1  D_1  S_1  
     e( 10 - 10) =      5.42978  eV     1   --> B_2  D_4  S_4  
     e( 11 - 11) =      6.42952  eV     1   --> A_1  D_1  S_1  
     e( 12 - 12) =      6.99060  eV     1   --> B_2  D_4  S_4  
     e( 13 - 13) =      7.30367  eV     1   --> A_1  D_1  S_1  
     e( 14 - 14) =      9.70629  eV     1   --> B_2  D_4  S_4  
     e( 15 - 15) =      9.94049  eV     1   --> A_1  D_1  S_1  
     e( 16 - 16) =     10.98503  eV     1   --> B_1  D_3  S_3  
     e( 17 - 17) =     12.17673  eV     1   --> A_1  D_1  S_1  
     e( 18 - 18) =     13.24922  eV     1   --> B_2  D_4  S_4  
     e( 19 - 19) =     14.84746  eV     1   --> A_1  D_1  S_1  
     e( 20 - 20) =     16.82607  eV     1   --> B_2  D_4  S_4  

 **************************************************************************

 **************************************************************************

                    xk=(   0.23500,   0.13568,   0.00000  )

     Band symmetry, C_2v (mm2)  point group:

     e(  1 -  1) =    -20.77549  eV     1   --> A_1  D_1  S_1  
     e(  2 -  2) =     -9.12526  eV     1   --> A_1  D_1  S_1  
     e(  3 -  3) =     -8.27734  eV     1   --> B_2  D_4  S_4  
     e(  4 -  4) =     -7.26047  eV     1   --> B_1  D_3  S_3  
     e(  5 -  5) =      2.19886  eV     1   --> A_1  D_1  S_1  
     e(  6 -  6) =      3.06800  eV     1   --> B_2  D_4  S_4  
     e(  7 -  7) =      3.66064  eV     1   --> A_1  D_1  S_1  
     e(  8 -  8) =      4.27802  eV     1   --> B_2  D_4  S_4  
     e(  9 -  9) =      4.88778  eV     1   --> A_1  D_1  S_1  
     e( 10 - 10) =      5.41566  eV     1   --> B_2  D_4  S_4  
     e( 11 - 11) =      6.43747  eV     1   --> A_1  D_1  S_1  
     e( 12 - 12) =      7.02799  eV     1   --> B_2  D_4  S_4  
     e( 13 - 13) =      7.36211  eV     1   --> A_1  D_1  S_1  
     e( 14 - 14) =      9.76476  eV     1   --> B_2  D_4  S_4  
     e( 15 - 15) =     10.01678  eV     1   --> A_1  D_1  S_1  
     e( 16 - 16) =     11.12770  eV     1   --> B_1  D_3  S_3  
     e( 17 - 17) =     12.24548  eV     1   --> A_1  D_1  S_1  
     e( 18 - 18) =     13.30161  eV     1   --> B_2  D_4  S_4  
     e( 19 - 19) =     14.91068  eV     1   --> A_1  D_1  S_1  
     e( 20 - 20) =     16.78161  eV     1   --> B_2  D_4  S_4  

 **************************************************************************

 **************************************************************************

                    xk=(   0.24000,   0.13856,   0.00000  )

     Band symmetry, C_2v (mm2)  point group:

     e(  1 -  1) =    -20.73357  eV     1   --> A_1  D_1  S_1  
     e(  2 -  2) =     -9.23436  eV     1   --> A_1  D_1  S_1  
     e(  3 -  3) =     -8.21971  eV     1   --> B_2  D_4  S_4  
     e(  4 -  4) =     -7.30399  eV     1   --> B_1  D_3  S_3  
     e(  5 -  5) =      2.26981  eV     1   --> A_1  D_1  S_1  
     e(  6 -  6) =      3.11535  eV     1   --> B_2  D_4  S_4  
     e(  7 -  7) =      3.73606  eV     1   --> A_1  D_1  S_1  
     e(  8 -  8) =      4.31893  eV     1   --> B_2  D_4  S_4  
     e(  9 -  9) =      4.95825  eV     1   --> A_1  D_1  S_1  
     e( 10 - 10) =      5.40455  eV     1   --> B_2  D_4  S_4  
     e( 11 - 11) =      6.44429  eV     1   --> A_1  D_1  S_1  
     e( 12 - 12) =      7.07069  eV     1   --> B_2  D_4  S_4  
     e( 13 - 13) =      7.42399  eV     1   --> A_1  D_1  S_1  
     e( 14 - 14) =      9.82517  eV     1   --> B_2  D_4  S_4  
     e( 15 - 15) =     10.09418  eV     1   --> A_1  D_1  S_1  
     e( 16 - 16) =     11.27155  eV     1   --> B_1  D_3  S_3  
     e( 17 - 17) =     12.31380  eV     1   --> A_1  D_1  S_1  
     e( 18 - 18) =     13.35441  eV     1   --> B_2  D_4  S_4  
     e( 19 - 19) =     14.97408  eV     1   --> A_1  D_1  S_1  
     e( 20 - 20) =     16.73041  eV     1   --> B_2  D_4  S_4  

 **************************************************************************

 **************************************************************************

                    xk=(   0.24500,   0.14145,   0.00000  )

     Band symmetry, C_2v (mm2)  point group:

     e(  1 -  1) =    -20.69099  eV     1   --> A_1  D_1  S_1  
     e(  2 -  2) =     -9.34360  eV     1   --> A_1  D_1  S_1  
     e(  3 -  3) =     -8.16108  eV     1   --> B_2  D_4  S_4  
     e(  4 -  4) =     -7.34720  eV     1   --> B_1  D_3  S_3  
     e(  5 -  5) =      2.34204  eV     1   --> A_1  D_1  S_1  
     e(  6 -  6) =      3.15945  eV     1   --> B_2  D_4  S_4  
     e(  7 -  7) =      3.81305  eV     1   --> A_1  D_1  S_1  
     e(  8 -  8) =      4.35621  eV     1   --> B_2  D_4  S_4  
     e(  9 -  9) =      5.02965  eV     1   --> A_1  D_1  S_1  
     e( 10 - 10) =      5.39834  eV     1   --> B_2  D_4  S_4  
     e( 11 - 11) =      6.45039  eV     1   --> A_1  D_1  S_1  
[...]
     e( 20 - 20) =     13.98417  eV     1   --> A''            

 **************************************************************************

 **************************************************************************

                    xk=(  -0.31000,  -0.53694,   0.00000  )

     Band symmetry, C_s (m)     point group:

     e(  1 -  1) =    -18.14805  eV     1   --> A'             
     e(  2 -  2) =    -12.41991  eV     1   --> A'             
     e(  3 -  3) =    -11.30970  eV     1   --> A'             
     e(  4 -  4) =     -4.45515  eV     1   --> A''            
     e(  5 -  5) =      0.27933  eV     1   --> A''            
     e(  6 -  6) =      7.93534  eV     1   --> A''            
     e(  7 -  7) =      8.64336  eV     1   --> A'             
     e(  8 -  8) =      9.92840  eV     1   --> A'             
     e(  9 -  9) =     10.96529  eV     1   --> A''            
     e( 10 - 10) =     10.99167  eV     1   --> A'             
     e( 11 - 11) =     11.23970  eV     1   --> A'             
     e( 12 - 12) =     12.04423  eV     1   --> A''            
     e( 13 - 13) =     12.24639  eV     1   --> A'             
     e( 14 - 14) =     12.86395  eV     1   --> A''            
     e( 15 - 15) =     13.15912  eV     1   --> A'             
     e( 16 - 16) =     13.18208  eV     1   --> A'             
     e( 17 - 17) =     13.38311  eV     1   --> A''            
     e( 18 - 18) =     13.46524  eV     1   --> A'             
     e( 19 - 19) =     13.73618  eV     1   --> A'             
     e( 20 - 20) =     13.99895  eV     1   --> A''            

 **************************************************************************

 **************************************************************************

                    xk=(  -0.31333,  -0.54271,   0.00000  )

     Band symmetry, C_s (m)     point group:

     e(  1 -  1) =    -18.13299  eV     1   --> A'             
     e(  2 -  2) =    -12.41494  eV     1   --> A'             
     e(  3 -  3) =    -11.34755  eV     1   --> A'             
     e(  4 -  4) =     -4.43002  eV     1   --> A''            
     e(  5 -  5) =      0.25922  eV     1   --> A''            
     e(  6 -  6) =      7.91922  eV     1   --> A''            
     e(  7 -  7) =      8.73044  eV     1   --> A'             
     e(  8 -  8) =      9.96566  eV     1   --> A'             
     e(  9 -  9) =     11.05462  eV     1   --> A'             
     e( 10 - 10) =     11.13086  eV     1   --> A''            
     e( 11 - 11) =     11.34768  eV     1   --> A'             
     e( 12 - 12) =     12.19066  eV     1   --> A''            
     e( 13 - 13) =     12.38460  eV     1   --> A'             
     e( 14 - 14) =     12.78018  eV     1   --> A''            
     e( 15 - 15) =     13.07493  eV     1   --> A'             
     e( 16 - 16) =     13.12935  eV     1   --> A'             
     e( 17 - 17) =     13.30924  eV     1   --> A''            
     e( 18 - 18) =     13.42999  eV     1   --> A'             
     e( 19 - 19) =     13.66381  eV     1   --> A'             
     e( 20 - 20) =     13.96636  eV     1   --> A''            

 **************************************************************************

 **************************************************************************

                    xk=(  -0.31667,  -0.54848,   0.00000  )

     Band symmetry, C_s (m)     point group:

     e(  1 -  1) =    -18.12042  eV     1   --> A'             
     e(  2 -  2) =    -12.40871  eV     1   --> A'             
     e(  3 -  3) =    -11.38137  eV     1   --> A'             
     e(  4 -  4) =     -4.40900  eV     1   --> A''            
     e(  5 -  5) =      0.24274  eV     1   --> A''            
     e(  6 -  6) =      7.90447  eV     1   --> A''            
     e(  7 -  7) =      8.80356  eV     1   --> A'             
     e(  8 -  8) =     10.00647  eV     1   --> A'             
     e(  9 -  9) =     11.05269  eV     1   --> A'             
     e( 10 - 10) =     11.29512  eV     1   --> A''            
     e( 11 - 11) =     11.51361  eV     1   --> A'             
     e( 12 - 12) =     12.31228  eV     1   --> A''            
     e( 13 - 13) =     12.51994  eV     1   --> A'             
     e( 14 - 14) =     12.71483  eV     1   --> A''            
     e( 15 - 15) =     12.97301  eV     1   --> A'             
     e( 16 - 16) =     13.06167  eV     1   --> A'             
     e( 17 - 17) =     13.23693  eV     1   --> A''            
     e( 18 - 18) =     13.43539  eV     1   --> A'             
     e( 19 - 19) =     13.58964  eV     1   --> A'             
     e( 20 - 20) =     13.89125  eV     1   --> A''            

 **************************************************************************

 **************************************************************************

                    xk=(  -0.32000,  -0.55426,   0.00000  )

     Band symmetry, C_s (m)     point group:

     e(  1 -  1) =    -18.11030  eV     1   --> A'             
     e(  2 -  2) =    -12.40185  eV     1   --> A'             
     e(  3 -  3) =    -11.41055  eV     1   --> A'             
     e(  4 -  4) =     -4.39203  eV     1   --> A''            
     e(  5 -  5) =      0.22973  eV     1   --> A''            
     e(  6 -  6) =      7.89159  eV     1   --> A''            
     e(  7 -  7) =      8.86197  eV     1   --> A'             
     e(  8 -  8) =     10.04935  eV     1   --> A'             
     e(  9 -  9) =     11.02886  eV     1   --> A'             
     e( 10 - 10) =     11.45529  eV     1   --> A''            
     e( 11 - 11) =     11.69900  eV     1   --> A'             
     e( 12 - 12) =     12.37535  eV     1   --> A''            
     e( 13 - 13) =     12.63875  eV     1   --> A'             
     e( 14 - 14) =     12.69508  eV     1   --> A''            
     e( 15 - 15) =     12.87525  eV     1   --> A'             
     e( 16 - 16) =     12.98529  eV     1   --> A'             
     e( 17 - 17) =     13.17871  eV     1   --> A''            
     e( 18 - 18) =     13.45799  eV     1   --> A'             
     e( 19 - 19) =     13.51940  eV     1   --> A'             
     e( 20 - 20) =     13.80008  eV     1   --> A''            

 **************************************************************************

 **************************************************************************

                    xk=(  -0.32333,  -0.56003,   0.00000  )

     Band symmetry, C_s (m)     point group:

     e(  1 -  1) =    -18.10257  eV     1   --> A'             
     e(  2 -  2) =    -12.39516  eV     1   --> A'             
     e(  3 -  3) =    -11.43446  eV     1   --> A'             
     e(  4 -  4) =     -4.37905  eV     1   --> A''            
     e(  5 -  5) =      0.22001  eV     1   --> A''            
     e(  6 -  6) =      7.88103  eV     1   --> A''            
     e(  7 -  7) =      8.90554  eV     1   --> A'             
     e(  8 -  8) =     10.09115  eV     1   --> A'             
     e(  9 -  9) =     10.99992  eV     1   --> A'             
     e( 10 - 10) =     11.60644  eV     1   --> A''            
     e( 11 - 11) =     11.89119  eV     1   --> A'             
     e( 12 - 12) =     12.36259  eV     1   --> A''            
     e( 13 - 13) =     12.69213  eV     1   --> A'             
     e( 14 - 14) =     12.72313  eV     1   --> A''            
     e( 15 - 15) =     12.79102  eV     1   --> A'             
     e( 16 - 16) =     12.94736  eV     1   --> A'             
     e( 17 - 17) =     13.15381  eV     1   --> A''            
     e( 18 - 18) =     13.43997  eV     1   --> A'             
     e( 19 - 19) =     13.49757  eV     1   --> A'             
     e( 20 - 20) =     13.70581  eV     1   --> A''            

 **************************************************************************

 **************************************************************************

                    xk=(  -0.32667,  -0.56580,   0.00000  )

     Band symmetry, C_s (m)     point group:

     e(  1 -  1) =    -18.09715  eV     1   --> A'             
     e(  2 -  2) =    -12.38940  eV     1   --> A'             
     e(  3 -  3) =    -11.45235  eV     1   --> A'             
     e(  4 -  4) =     -4.36996  eV     1   --> A''            
     e(  5 -  5) =      0.21337  eV     1   --> A''            
     e(  6 -  6) =      7.87315  eV     1   --> A''            
     e(  7 -  7) =      8.93506  eV     1   --> A'             
     e(  8 -  8) =     10.12732  eV     1   --> A'             
     e(  9 -  9) =     10.97390  eV     1   --> A'             
     e( 10 - 10) =     11.73882  eV     1   --> A''            
     e( 11 - 11) =     12.08577  eV     1   --> A'             
     e( 12 - 12) =     12.31724  eV     1   --> A''            
     e( 13 - 13) =     12.63538  eV     1   --> A'             
     e( 14 - 14) =     12.71337  eV     1   --> A'             
     e( 15 - 15) =     12.74123  eV     1   --> A''            
     e( 16 - 16) =     12.99729  eV     1   --> A'             
     e( 17 - 17) =     13.18137  eV     1   --> A''            
     e( 18 - 18) =     13.38178  eV     1   --> A'             
     e( 19 - 19) =     13.51905  eV     1   --> A'             
     e( 20 - 20) =     13.61538  eV     1   --> A''            

 **************************************************************************

 **************************************************************************

                    xk=(  -0.33000,  -0.57158,   0.00000  )

     Band symmetry, C_s (m)     point group:

     e(  1 -  1) =    -18.09397  eV     1   --> A'             
     e(  2 -  2) =    -12.38542  eV     1   --> A'             
     e(  3 -  3) =    -11.46356  eV     1   --> A'             
     e(  4 -  4) =     -4.36464  eV     1   --> A''            
     e(  5 -  5) =      0.20957  eV     1   --> A''            
     e(  6 -  6) =      7.86824  eV     1   --> A''            
     e(  7 -  7) =      8.95167  eV     1   --> A'             
     e(  8 -  8) =     10.15233  eV     1   --> A'             
     e(  9 -  9) =     10.95624  eV     1   --> A'             
     e( 10 - 10) =     11.83352  eV     1   --> A''            
     e( 11 - 11) =     12.27834  eV     1   --> A'             
     e( 12 - 12) =     12.27963  eV     1   --> A''            
     e( 13 - 13) =     12.54632  eV     1   --> A'             
     e( 14 - 14) =     12.62365  eV     1   --> A'             
     e( 15 - 15) =     12.73097  eV     1   --> A''            
     e( 16 - 16) =     13.06537  eV     1   --> A'             
     e( 17 - 17) =     13.24399  eV     1   --> A''            
     e( 18 - 18) =     13.33715  eV     1   --> A'             
     e( 19 - 19) =     13.53405  eV     1   --> A'             
     e( 20 - 20) =     13.53917  eV     1   --> A''            

 **************************************************************************

 **************************************************************************

                    xk=(  -0.33333,  -0.57735,   0.00000  )

     point group C_3h (-6)  
     there are  6 classes
     the character table:

       E     C3    C3^2  s_h   S3    S3^5 
A'     1.00  1.00  1.00  1.00  1.00  1.00
E'     1.00 -0.50 -0.50  1.00 -0.50 -0.50
E'*    1.00 -0.50 -0.50  1.00 -0.50 -0.50
A''    1.00  1.00  1.00 -1.00 -1.00 -1.00
E''    1.00 -0.50 -0.50 -1.00  0.50  0.50
E''*   1.00 -0.50 -0.50 -1.00  0.50  0.50
     imaginary part
A'     0.00  0.00  0.00  0.00  0.00  0.00
E'     0.00  0.87 -0.87  0.00  0.87 -0.87
E'*    0.00 -0.87  0.87  0.00 -0.87  0.87
A''    0.00  0.00  0.00  0.00  0.00  0.00
E''    0.00  0.87 -0.87  0.00 -0.87  0.87
E''*   0.00 -0.87  0.87  0.00  0.87 -0.87

     the symmetry operations in each class and the name of the first element:

     E        1
                                                                 
     C3       2
                                                                 
     C3^2     3
                                                                 
     s_h      4
                                                                 
     S3       6
                                                                 
     S3^5     5
                                                                 

     Band symmetry, C_3h (-6)   point group:

     e(  1 -  1) =    -18.09293  eV     1   --> E'             
     e(  2 -  2) =    -12.38393  eV     1   --> A'             
     e(  3 -  3) =    -11.46741  eV     1   --> E'*            
     e(  4 -  4) =     -4.36290  eV     1   --> E''            
     e(  5 -  5) =      0.20836  eV     1   --> E''*           
     e(  6 -  6) =      7.86656  eV     1   --> A''            
     e(  7 -  7) =      8.95689  eV     1   --> E'*            
     e(  8 -  8) =     10.16140  eV     1   --> A'             
     e(  9 -  9) =     10.95015  eV     1   --> E'             
     e( 10 - 10) =     11.86691  eV     1   --> E''            
     e( 11 - 11) =     12.26885  eV     1   --> E''*           
     e( 12 - 12) =     12.41946  eV     1   --> E'*            
     e( 13 - 13) =     12.48112  eV     1   --> A'             
     e( 14 - 14) =     12.55058  eV     1   --> E'             
     e( 15 - 15) =     12.72024  eV     1   --> A''            
     e( 16 - 16) =     13.09279  eV     1   --> E'*            
     e( 17 - 17) =     13.28016  eV     1   --> E''            
     e( 18 - 18) =     13.32158  eV     1   --> A'             
     e( 19 - 19) =     13.50543  eV     1   --> E''*           
     e( 20 - 20) =     13.53897  eV     1   --> E'             

 **************************************************************************

     BANDS        :     30.58s CPU     35.16s WALL


   This run was terminated on:  15: 1:17  23Jan2025            

=------------------------------------------------------------------------------=
   JOB DONE.
=------------------------------------------------------------------------------=
Note: The following floating-point exceptions are signalling: IEEE_OVERFLOW_FLAG IEEE_DENORMAL
Note: The following floating-point exceptions are signalling: IEEE_OVERFLOW_FLAG IEEE_DENORMAL
Note: The following floating-point exceptions are signalling: IEEE_OVERFLOW_FLAG IEEE_DENORMAL
Note: The following floating-point exceptions are signalling: IEEE_OVERFLOW_FLAG IEEE_DENORMAL
Note: The following floating-point exceptions are signalling: IEEE_OVERFLOW_FLAG IEEE_DENORMAL
Note: The following floating-point exceptions are signalling: IEEE_OVERFLOW_FLAG IEEE_DENORMAL
Note: The following floating-point exceptions are signalling: IEEE_OVERFLOW_FLAG IEEE_DENORMAL
Note: The following floating-point exceptions are signalling: IEEE_OVERFLOW_FLAG IEEE_DENORMAL
Note: The following floating-point exceptions are signalling: IEEE_OVERFLOW_FLAG IEEE_DENORMAL
Note: The following floating-point exceptions are signalling: IEEE_OVERFLOW_FLAG IEEE_DENORMAL
Note: The following floating-point exceptions are signalling: IEEE_OVERFLOW_FLAG IEEE_DENORMAL
Note: The following floating-point exceptions are signalling: IEEE_OVERFLOW_FLAG IEEE_DENORMAL
Note: The following floating-point exceptions are signalling: IEEE_OVERFLOW_FLAG
Note: The following floating-point exceptions are signalling: IEEE_OVERFLOW_FLAG IEEE_DENORMAL
Note: The following floating-point exceptions are signalling: IEEE_OVERFLOW_FLAG IEEE_DENORMAL
Note: The following floating-point exceptions are signalling: IEEE_OVERFLOW_FLAG
Note: The following floating-point exceptions are signalling: IEEE_OVERFLOW_FLAG IEEE_DENORMAL
Note: The following floating-point exceptions are signalling: IEEE_OVERFLOW_FLAG IEEE_DENORMAL
Note: The following floating-point exceptions are signalling: IEEE_OVERFLOW_FLAG IEEE_DENORMAL
Note: The following floating-point exceptions are signalling: IEEE_OVERFLOW_FLAG IEEE_DENORMAL
Note: The following floating-point exceptions are signalling: IEEE_OVERFLOW_FLAG IEEE_DENORMAL
Note: The following floating-point exceptions are signalling: IEEE_OVERFLOW_FLAG IEEE_DENORMAL
Note: The following floating-point exceptions are signalling: IEEE_OVERFLOW_FLAG IEEE_DENORMAL
Note: The following floating-point exceptions are signalling: IEEE_OVERFLOW_FLAG IEEE_DENORMAL
Note: The following floating-point exceptions are signalling: IEEE_OVERFLOW_FLAG IEEE_DENORMAL
Note: The following floating-point exceptions are signalling: IEEE_OVERFLOW_FLAG IEEE_DENORMAL
Note: The following floating-point exceptions are signalling: IEEE_OVERFLOW_FLAG IEEE_DENORMAL
Note: The following floating-point exceptions are signalling: IEEE_OVERFLOW_FLAG IEEE_DENORMAL
Note: The following floating-point exceptions are signalling: IEEE_OVERFLOW_FLAG IEEE_DENORMAL
Note: The following floating-point exceptions are signalling: IEEE_OVERFLOW_FLAG
Note: The following floating-point exceptions are signalling: IEEE_OVERFLOW_FLAG IEEE_DENORMAL
Note: The following floating-point exceptions are signalling: IEEE_OVERFLOW_FLAG IEEE_DENORMAL
Note: The following floating-point exceptions are signalling: IEEE_OVERFLOW_FLAG IEEE_DENORMAL
Note: The following floating-point exceptions are signalling: IEEE_OVERFLOW_FLAG IEEE_DENORMAL
Note: The following floating-point exceptions are signalling: IEEE_OVERFLOW_FLAG IEEE_DENORMAL
Note: The following floating-point exceptions are signalling: IEEE_OVERFLOW_FLAG IEEE_DENORMAL
Note: The following floating-point exceptions are signalling: IEEE_OVERFLOW_FLAG IEEE_DENORMAL
Note: The following floating-point exceptions are signalling: IEEE_OVERFLOW_FLAG IEEE_DENORMAL
Note: The following floating-point exceptions are signalling: IEEE_OVERFLOW_FLAG IEEE_DENORMAL
Note: The following floating-point exceptions are signalling: IEEE_OVERFLOW_FLAG IEEE_DENORMAL
Note: The following floating-point exceptions are signalling: IEEE_OVERFLOW_FLAG IEEE_DENORMAL
Note: The following floating-point exceptions are signalling: IEEE_OVERFLOW_FLAG IEEE_DENORMAL
Note: The following floating-point exceptions are signalling: IEEE_OVERFLOW_FLAG IEEE_DENORMAL
Note: The following floating-point exceptions are signalling: IEEE_OVERFLOW_FLAG IEEE_DENORMAL
Note: The following floating-point exceptions are signalling: IEEE_OVERFLOW_FLAG IEEE_DENORMAL
Note: The following floating-point exceptions are signalling: IEEE_OVERFLOW_FLAG IEEE_DENORMAL
Note: The following floating-point exceptions are signalling: IEEE_OVERFLOW_FLAG IEEE_DENORMAL
Note: The following floating-point exceptions are signalling: IEEE_OVERFLOW_FLAG IEEE_DENORMAL
Note: The following floating-point exceptions are signalling: IEEE_OVERFLOW_FLAG IEEE_DENORMAL
Note: The following floating-point exceptions are signalling: IEEE_OVERFLOW_FLAG
Note: The following floating-point exceptions are signalling: IEEE_OVERFLOW_FLAG IEEE_DENORMAL
Note: The following floating-point exceptions are signalling: IEEE_OVERFLOW_FLAG IEEE_DENORMAL
Note: The following floating-point exceptions are signalling: IEEE_OVERFLOW_FLAG IEEE_DENORMAL
Note: The following floating-point exceptions are signalling: IEEE_OVERFLOW_FLAG IEEE_DENORMAL
Note: The following floating-point exceptions are signalling: IEEE_OVERFLOW_FLAG IEEE_DENORMAL
Note: The following floating-point exceptions are signalling: IEEE_OVERFLOW_FLAG
Note: The following floating-point exceptions are signalling: IEEE_OVERFLOW_FLAG IEEE_DENORMAL
Note: The following floating-point exceptions are signalling: IEEE_OVERFLOW_FLAG IEEE_DENORMAL
Note: The following floating-point exceptions are signalling: IEEE_OVERFLOW_FLAG IEEE_DENORMAL
Note: The following floating-point exceptions are signalling: IEEE_OVERFLOW_FLAG IEEE_DENORMAL
Note: The following floating-point exceptions are signalling: IEEE_OVERFLOW_FLAG IEEE_DENORMAL
Note: The following floating-point exceptions are signalling: IEEE_OVERFLOW_FLAG
Note: The following floating-point exceptions are signalling: IEEE_OVERFLOW_FLAG IEEE_DENORMAL
Note: The following floating-point exceptions are signalling: IEEE_OVERFLOW_FLAG IEEE_DENORMAL
