
     Program PWSCF v.7.2 starts on 23Jan2025 at 14:48: 5 

     This program is part of the open-source Quantum ESPRESSO suite
     for quantum simulation of materials; please cite
         "P. Giannozzi et al., J. Phys.:Condens. Matter 21 395502 (2009);
         "P. Giannozzi et al., J. Phys.:Condens. Matter 29 465901 (2017);
         "P. Giannozzi et al., J. Chem. Phys. 152 154105 (2020);
          URL http://www.quantum-espresso.org", 
     in publications or presentations arising from this work. More details at
     http://www.quantum-espresso.org/quote

     Parallel version (MPI), running on    64 processors

     MPI processes distributed on     4 nodes
     487392 MiB available memory on the printing compute node when the environment starts

     Reading input from in

     Current dimensions of program PWSCF are:
     Max number of different atomic species (ntypx) = 10
     Max number of k-points (npk) =  40000
     Max angular momentum in pseudopotentials (lmaxx) =  4

     Atomic positions and unit cell read from directory:
     ./bn.save/
     Atomic positions from file used, from input discarded

     Message from routine setup:
     using ibrav=0 with symmetry is DISCOURAGED, use correct ibrav instead

     R & G space division:  proc/nbgrp/npool/nimage =      64
     Subspace diagonalization in iterative solution of the eigenvalue problem:
     a serial algorithm will be used


     Parallelization info
     --------------------
     sticks:   dense  smooth     PW     G-vecs:    dense   smooth      PW
     Min           6       6      2                  878      878     212
     Max           7       7      3                  927      927     273
     Sum         433     433    187                58173    58173   15833

     Using Slab Decomposition



     bravais-lattice index     =            0
     lattice parameter (alat)  =       4.7319  a.u.
     unit-cell volume          =     732.8682 (a.u.)^3
     number of atoms/cell      =            2
     number of atomic types    =            2
     number of electrons       =         8.00
     number of Kohn-Sham states=           50
     kinetic-energy cutoff     =      70.0000  Ry
     charge density cutoff     =     280.0000  Ry
     Exchange-correlation= PZ
                           (   1   1   0   0   0   0   0)

     celldm(1)=   4.731874  celldm(2)=   0.000000  celldm(3)=   0.000000
     celldm(4)=   0.000000  celldm(5)=   0.000000  celldm(6)=   0.000000

     crystal axes: (cart. coord. in units of alat)
               a(1) = (   1.000000   0.000000   0.000000 )  
               a(2) = (  -0.500000   0.866025   0.000000 )  
               a(3) = (   0.000000   0.000000   7.987220 )  

     reciprocal axes: (cart. coord. in units 2 pi/alat)
               b(1) = (  1.000000  0.577350 -0.000000 )  
               b(2) = (  0.000000  1.154701  0.000000 )  
               b(3) = (  0.000000 -0.000000  0.125200 )  


     PseudoPot. # 1 for B  read from file:
     ./B_LDA.upf
     MD5 check sum: 65253fcade13fd046065f55d2370c246
     Pseudo is Norm-conserving, Zval =  3.0
     Generated using ONCVPSP code by D. R. Hamann
     Using radial grid of 1498 points,  4 beta functions with: 
                l(1) =   0
                l(2) =   0
                l(3) =   1
                l(4) =   1

     PseudoPot. # 2 for N  read from file:
     ./N_LDA.upf
     MD5 check sum: 7658f7615a25ff704775af13f841a702
     Pseudo is Norm-conserving, Zval =  5.0
     Generated using ONCVPSP code by D. R. Hamann
     Using radial grid of 1058 points,  4 beta functions with: 
                l(1) =   0
                l(2) =   0
                l(3) =   1
                l(4) =   1

     atomic species   valence    mass     pseudopotential
        B              3.00    11.00000     B ( 1.00)
        N              5.00    14.00000     N ( 1.00)

     12 Sym. Ops. (no inversion) found


                                    s                        frac. trans.

      isym =  1     identity                                     

 cryst.   s( 1) = (     1          0          0      )
                  (     0          1          0      )
                  (     0          0          1      )

 cart.    s( 1) = (  1.0000000  0.0000000  0.0000000 )
                  (  0.0000000  1.0000000  0.0000000 )
                  (  0.0000000  0.0000000  1.0000000 )


      isym =  2     180 deg rotation - cart. axis [0,1,0]        

 cryst.   s( 2) = (    -1          0          0      )
                  (     1          1          0      )
                  (     0          0         -1      )

 cart.    s( 2) = ( -1.0000000  0.0000000  0.0000000 )
                  (  0.0000000  1.0000000  0.0000000 )
                  (  0.0000000  0.0000000 -1.0000000 )


      isym =  3     120 deg rotation - cryst. axis [0,0,1]       

 cryst.   s( 3) = (     0          1          0      )
                  (    -1         -1          0      )
                  (     0          0          1      )

 cart.    s( 3) = ( -0.5000000 -0.8660254  0.0000000 )
                  (  0.8660254 -0.5000000  0.0000000 )
                  (  0.0000000  0.0000000  1.0000000 )


      isym =  4     120 deg rotation - cryst. axis [0,0,-1]      

 cryst.   s( 4) = (    -1         -1          0      )
                  (     1          0          0      )
                  (     0          0          1      )

 cart.    s( 4) = ( -0.5000000  0.8660254  0.0000000 )
                  ( -0.8660254 -0.5000000  0.0000000 )
                  (  0.0000000  0.0000000  1.0000000 )


      isym =  5     180 deg rotation - cryst. axis [1,-1,0]      

 cryst.   s( 5) = (     0         -1          0      )
                  (    -1          0          0      )
                  (     0          0         -1      )

 cart.    s( 5) = (  0.5000000 -0.8660254  0.0000000 )
                  ( -0.8660254 -0.5000000  0.0000000 )
                  (  0.0000000  0.0000000 -1.0000000 )


      isym =  6     180 deg rotation - cryst. axis [2,1,0]       

 cryst.   s( 6) = (     1          1          0      )
                  (     0         -1          0      )
                  (     0          0         -1      )

 cart.    s( 6) = (  0.5000000  0.8660254  0.0000000 )
                  (  0.8660254 -0.5000000  0.0000000 )
                  (  0.0000000  0.0000000 -1.0000000 )


      isym =  7     inv. 180 deg rotation - cart. axis [0,0,1]   

 cryst.   s( 7) = (     1          0          0      )
                  (     0          1          0      )
                  (     0          0         -1      )

 cart.    s( 7) = (  1.0000000  0.0000000  0.0000000 )
                  (  0.0000000  1.0000000  0.0000000 )
                  (  0.0000000  0.0000000 -1.0000000 )


      isym =  8     inv. 180 deg rotation - cart. axis [1,0,0]   

 cryst.   s( 8) = (    -1          0          0      )
                  (     1          1          0      )
                  (     0          0          1      )

 cart.    s( 8) = ( -1.0000000  0.0000000  0.0000000 )
                  (  0.0000000  1.0000000  0.0000000 )
                  (  0.0000000  0.0000000  1.0000000 )


      isym =  9     inv.  60 deg rotation - cryst. axis [0,0,1]  

 cryst.   s( 9) = (    -1         -1          0      )
                  (     1          0          0      )
                  (     0          0         -1      )

 cart.    s( 9) = ( -0.5000000  0.8660254  0.0000000 )
                  ( -0.8660254 -0.5000000  0.0000000 )
                  (  0.0000000  0.0000000 -1.0000000 )


      isym = 10     inv.  60 deg rotation - cryst. axis [0,0,-1] 

 cryst.   s(10) = (     0          1          0      )
                  (    -1         -1          0      )
                  (     0          0         -1      )

 cart.    s(10) = ( -0.5000000 -0.8660254  0.0000000 )
                  (  0.8660254 -0.5000000  0.0000000 )
                  (  0.0000000  0.0000000 -1.0000000 )


      isym = 11     inv. 180 deg rotation - cryst. axis [0,1,0]  

 cryst.   s(11) = (     1          1          0      )
                  (     0         -1          0      )
                  (     0          0          1      )

 cart.    s(11) = (  0.5000000  0.8660254  0.0000000 )
                  (  0.8660254 -0.5000000  0.0000000 )
                  (  0.0000000  0.0000000  1.0000000 )


      isym = 12     inv. 180 deg rotation - cryst. axis [1,1,0]  

 cryst.   s(12) = (     0         -1          0      )
                  (    -1          0          0      )
                  (     0          0          1      )

 cart.    s(12) = (  0.5000000 -0.8660254  0.0000000 )
                  ( -0.8660254 -0.5000000  0.0000000 )
                  (  0.0000000  0.0000000  1.0000000 )


   Cartesian axes

     site n.     atom                  positions (alat units)
         1           N   tau(   1) = (  -0.0000000   0.5773503   3.9936102  )
         2           B   tau(   2) = (   0.5000000   0.2886751   3.9936102  )

   Crystallographic axes

     site n.     atom                  positions (cryst. coord.)
         1           N   tau(   1) = (  0.3333333  0.6666667  0.5000000  )
         2           B   tau(   2) = (  0.6666667  0.3333333  0.5000000  )

     number of k points=   300
                       cart. coord. in units 2pi/alat
        k(    1) = (   0.0010000   0.0005774   0.0000000), wk =   0.0034722
        k(    2) = (   0.0010000   0.0486899   0.0000000), wk =   0.0069444
        k(    3) = (   0.0010000   0.0968024   0.0000000), wk =   0.0069444
        k(    4) = (   0.0010000   0.1449149   0.0000000), wk =   0.0069444
        k(    5) = (   0.0010000   0.1930274   0.0000000), wk =   0.0069444
        k(    6) = (   0.0010000   0.2411400   0.0000000), wk =   0.0069444
        k(    7) = (   0.0010000   0.2892525   0.0000000), wk =   0.0069444
        k(    8) = (   0.0010000   0.3373650   0.0000000), wk =   0.0069444
        k(    9) = (   0.0010000   0.3854775   0.0000000), wk =   0.0069444
        k(   10) = (   0.0010000   0.4335901   0.0000000), wk =   0.0069444
        k(   11) = (   0.0010000   0.4817026   0.0000000), wk =   0.0069444
        k(   12) = (   0.0010000   0.5298151   0.0000000), wk =   0.0069444
        k(   13) = (   0.0010000   0.5779276   0.0000000), wk =   0.0069444
        k(   14) = (   0.0010000   0.6260401   0.0000000), wk =   0.0069444
        k(   15) = (   0.0010000   0.6741527   0.0000000), wk =   0.0069444
        k(   16) = (   0.0010000   0.7222652   0.0000000), wk =   0.0069444
        k(   17) = (   0.0010000   0.7703777   0.0000000), wk =   0.0069444
        k(   18) = (   0.0010000   0.8184902   0.0000000), wk =   0.0069444
        k(   19) = (   0.0010000   0.8666028   0.0000000), wk =   0.0069444
        k(   20) = (   0.0010000   0.9147153   0.0000000), wk =   0.0069444
        k(   21) = (   0.0010000   0.9628278   0.0000000), wk =   0.0069444
        k(   22) = (   0.0010000   1.0109403   0.0000000), wk =   0.0069444
        k(   23) = (   0.0010000   1.0590528   0.0000000), wk =   0.0069444
        k(   24) = (   0.0010000   1.1071654   0.0000000), wk =   0.0069444
        k(   25) = (   0.0426667   0.0246336   0.0000000), wk =   0.0034722
        k(   26) = (   0.0426667   0.0727461   0.0000000), wk =   0.0069444
        k(   27) = (   0.0426667   0.1208587   0.0000000), wk =   0.0069444
        k(   28) = (   0.0426667   0.1689712   0.0000000), wk =   0.0069444
        k(   29) = (   0.0426667   0.2170837   0.0000000), wk =   0.0069444
        k(   30) = (   0.0426667   0.2651962   0.0000000), wk =   0.0069444
        k(   31) = (   0.0426667   0.3133087   0.0000000), wk =   0.0069444
        k(   32) = (   0.0426667   0.3614213   0.0000000), wk =   0.0069444
        k(   33) = (   0.0426667   0.4095338   0.0000000), wk =   0.0069444
        k(   34) = (   0.0426667   0.4576463   0.0000000), wk =   0.0069444
        k(   35) = (   0.0426667   0.5057588   0.0000000), wk =   0.0069444
        k(   36) = (   0.0426667   0.5538714   0.0000000), wk =   0.0069444
        k(   37) = (   0.0426667   0.6019839   0.0000000), wk =   0.0069444
        k(   38) = (   0.0426667   0.6500964   0.0000000), wk =   0.0069444
        k(   39) = (   0.0426667   0.6982089   0.0000000), wk =   0.0069444
        k(   40) = (   0.0426667   0.7463214   0.0000000), wk =   0.0069444
        k(   41) = (   0.0426667   0.7944340   0.0000000), wk =   0.0069444
        k(   42) = (   0.0426667   0.8425465   0.0000000), wk =   0.0069444
        k(   43) = (   0.0426667   0.8906590   0.0000000), wk =   0.0069444
        k(   44) = (   0.0426667   0.9387715   0.0000000), wk =   0.0069444
        k(   45) = (   0.0426667   0.9868841   0.0000000), wk =   0.0069444
        k(   46) = (   0.0426667   1.0349966   0.0000000), wk =   0.0069444
        k(   47) = (   0.0843333   0.0486899   0.0000000), wk =   0.0034722
        k(   48) = (   0.0843333   0.0968024   0.0000000), wk =   0.0069444
        k(   49) = (   0.0843333   0.1449149   0.0000000), wk =   0.0069444
        k(   50) = (   0.0843333   0.1930274   0.0000000), wk =   0.0069444
        k(   51) = (   0.0843333   0.2411400   0.0000000), wk =   0.0069444
        k(   52) = (   0.0843333   0.2892525   0.0000000), wk =   0.0069444
        k(   53) = (   0.0843333   0.3373650   0.0000000), wk =   0.0069444
        k(   54) = (   0.0843333   0.3854775   0.0000000), wk =   0.0069444
        k(   55) = (   0.0843333   0.4335901   0.0000000), wk =   0.0069444
        k(   56) = (   0.0843333   0.4817026   0.0000000), wk =   0.0069444
        k(   57) = (   0.0843333   0.5298151   0.0000000), wk =   0.0069444
        k(   58) = (   0.0843333   0.5779276   0.0000000), wk =   0.0069444
        k(   59) = (   0.0843333   0.6260401   0.0000000), wk =   0.0069444
        k(   60) = (   0.0843333   0.6741527   0.0000000), wk =   0.0069444
        k(   61) = (   0.0843333   0.7222652   0.0000000), wk =   0.0069444
        k(   62) = (   0.0843333   0.7703777   0.0000000), wk =   0.0069444
        k(   63) = (   0.0843333   0.8184902   0.0000000), wk =   0.0069444
        k(   64) = (   0.0843333   0.8666028   0.0000000), wk =   0.0069444
        k(   65) = (   0.0843333   0.9147153   0.0000000), wk =   0.0069444
        k(   66) = (   0.0843333   0.9628278   0.0000000), wk =   0.0069444
        k(   67) = (   0.1260000   0.0727461   0.0000000), wk =   0.0034722
        k(   68) = (   0.1260000   0.1208587   0.0000000), wk =   0.0069444
        k(   69) = (   0.1260000   0.1689712   0.0000000), wk =   0.0069444
        k(   70) = (   0.1260000   0.2170837   0.0000000), wk =   0.0069444
        k(   71) = (   0.1260000   0.2651962   0.0000000), wk =   0.0069444
        k(   72) = (   0.1260000   0.3133087   0.0000000), wk =   0.0069444
        k(   73) = (   0.1260000   0.3614213   0.0000000), wk =   0.0069444
        k(   74) = (   0.1260000   0.4095338   0.0000000), wk =   0.0069444
        k(   75) = (   0.1260000   0.4576463   0.0000000), wk =   0.0069444
        k(   76) = (   0.1260000   0.5057588   0.0000000), wk =   0.0069444
        k(   77) = (   0.1260000   0.5538714   0.0000000), wk =   0.0069444
        k(   78) = (   0.1260000   0.6019839   0.0000000), wk =   0.0069444
        k(   79) = (   0.1260000   0.6500964   0.0000000), wk =   0.0069444
        k(   80) = (   0.1260000   0.6982089   0.0000000), wk =   0.0069444
        k(   81) = (   0.1260000   0.7463214   0.0000000), wk =   0.0069444
        k(   82) = (   0.1260000   0.7944340   0.0000000), wk =   0.0069444
        k(   83) = (   0.1260000   0.8425465   0.0000000), wk =   0.0069444
        k(   84) = (   0.1260000   0.8906590   0.0000000), wk =   0.0069444
        k(   85) = (   0.1676667   0.0968024   0.0000000), wk =   0.0034722
        k(   86) = (   0.1676667   0.1449149   0.0000000), wk =   0.0069444
        k(   87) = (   0.1676667   0.1930274   0.0000000), wk =   0.0069444
        k(   88) = (   0.1676667   0.2411400   0.0000000), wk =   0.0069444
        k(   89) = (   0.1676667   0.2892525   0.0000000), wk =   0.0069444
        k(   90) = (   0.1676667   0.3373650   0.0000000), wk =   0.0069444
        k(   91) = (   0.1676667   0.3854775   0.0000000), wk =   0.0069444
        k(   92) = (   0.1676667   0.4335901   0.0000000), wk =   0.0069444
        k(   93) = (   0.1676667   0.4817026   0.0000000), wk =   0.0069444
        k(   94) = (   0.1676667   0.5298151   0.0000000), wk =   0.0069444
        k(   95) = (   0.1676667   0.5779276   0.0000000), wk =   0.0069444
        k(   96) = (   0.1676667   0.6260401   0.0000000), wk =   0.0069444
        k(   97) = (   0.1676667   0.6741527   0.0000000), wk =   0.0069444
        k(   98) = (   0.1676667   0.7222652   0.0000000), wk =   0.0069444
        k(   99) = (   0.1676667   0.7703777   0.0000000), wk =   0.0069444
        k(  100) = (   0.1676667   0.8184902   0.0000000), wk =   0.0069444
        k(  101) = (   0.2093333   0.1208587   0.0000000), wk =   0.0034722
        k(  102) = (   0.2093333   0.1689712   0.0000000), wk =   0.0069444
        k(  103) = (   0.2093333   0.2170837   0.0000000), wk =   0.0069444
        k(  104) = (   0.2093333   0.2651962   0.0000000), wk =   0.0069444
        k(  105) = (   0.2093333   0.3133087   0.0000000), wk =   0.0069444
        k(  106) = (   0.2093333   0.3614213   0.0000000), wk =   0.0069444
        k(  107) = (   0.2093333   0.4095338   0.0000000), wk =   0.0069444
        k(  108) = (   0.2093333   0.4576463   0.0000000), wk =   0.0069444
        k(  109) = (   0.2093333   0.5057588   0.0000000), wk =   0.0069444
        k(  110) = (   0.2093333   0.5538714   0.0000000), wk =   0.0069444
        k(  111) = (   0.2093333   0.6019839   0.0000000), wk =   0.0069444
        k(  112) = (   0.2093333   0.6500964   0.0000000), wk =   0.0069444
        k(  113) = (   0.2093333   0.6982089   0.0000000), wk =   0.0069444
        k(  114) = (   0.2093333   0.7463214   0.0000000), wk =   0.0069444
        k(  115) = (   0.2510000   0.1449149   0.0000000), wk =   0.0034722
        k(  116) = (   0.2510000   0.1930274   0.0000000), wk =   0.0069444
        k(  117) = (   0.2510000   0.2411400   0.0000000), wk =   0.0069444
        k(  118) = (   0.2510000   0.2892525   0.0000000), wk =   0.0069444
        k(  119) = (   0.2510000   0.3373650   0.0000000), wk =   0.0069444
        k(  120) = (   0.2510000   0.3854775   0.0000000), wk =   0.0069444
        k(  121) = (   0.2510000   0.4335901   0.0000000), wk =   0.0069444
        k(  122) = (   0.2510000   0.4817026   0.0000000), wk =   0.0069444
        k(  123) = (   0.2510000   0.5298151   0.0000000), wk =   0.0069444
        k(  124) = (   0.2510000   0.5779276   0.0000000), wk =   0.0069444
        k(  125) = (   0.2510000   0.6260401   0.0000000), wk =   0.0069444
        k(  126) = (   0.2510000   0.6741527   0.0000000), wk =   0.0069444
        k(  127) = (   0.2926667   0.1689712   0.0000000), wk =   0.0034722
        k(  128) = (   0.2926667   0.2170837   0.0000000), wk =   0.0069444
        k(  129) = (   0.2926667   0.2651962   0.0000000), wk =   0.0069444
        k(  130) = (   0.2926667   0.3133087   0.0000000), wk =   0.0069444
        k(  131) = (   0.2926667   0.3614213   0.0000000), wk =   0.0069444
        k(  132) = (   0.2926667   0.4095338   0.0000000), wk =   0.0069444
        k(  133) = (   0.2926667   0.4576463   0.0000000), wk =   0.0069444
        k(  134) = (   0.2926667   0.5057588   0.0000000), wk =   0.0069444
        k(  135) = (   0.2926667   0.5538714   0.0000000), wk =   0.0069444
        k(  136) = (   0.2926667   0.6019839   0.0000000), wk =   0.0069444
        k(  137) = (   0.3343333   0.1930274   0.0000000), wk =   0.0034722
        k(  138) = (   0.3343333   0.2411400   0.0000000), wk =   0.0069444
        k(  139) = (   0.3343333   0.2892525   0.0000000), wk =   0.0069444
        k(  140) = (   0.3343333   0.3373650   0.0000000), wk =   0.0069444
        k(  141) = (   0.3343333   0.3854775   0.0000000), wk =   0.0069444
        k(  142) = (   0.3343333   0.4335901   0.0000000), wk =   0.0069444
        k(  143) = (   0.3343333   0.4817026   0.0000000), wk =   0.0069444
        k(  144) = (   0.3343333   0.5298151   0.0000000), wk =   0.0069444
        k(  145) = (   0.3343333   0.5779276   0.0000000), wk =   0.0069444
        k(  146) = (   0.3760000   0.2170837   0.0000000), wk =   0.0034722
        k(  147) = (   0.3760000   0.2651962   0.0000000), wk =   0.0069444
        k(  148) = (   0.3760000   0.3133087   0.0000000), wk =   0.0069444
        k(  149) = (   0.3760000   0.3614213   0.0000000), wk =   0.0069444
        k(  150) = (   0.3760000   0.4095338   0.0000000), wk =   0.0069444
        k(  151) = (   0.3760000   0.4576463   0.0000000), wk =   0.0069444
        k(  152) = (   0.3760000   0.5057588   0.0000000), wk =   0.0069444
        k(  153) = (   0.3760000   0.5538714   0.0000000), wk =   0.0069444
        k(  154) = (   0.4176667   0.2411400   0.0000000), wk =   0.0034722
        k(  155) = (   0.4176667   0.2892525   0.0000000), wk =   0.0069444
        k(  156) = (   0.4176667   0.3373650   0.0000000), wk =   0.0069444
        k(  157) = (   0.4176667   0.3854775   0.0000000), wk =   0.0069444
        k(  158) = (   0.4176667   0.4335901   0.0000000), wk =   0.0069444
        k(  159) = (   0.4176667   0.4817026   0.0000000), wk =   0.0069444
        k(  160) = (   0.4176667   0.5298151   0.0000000), wk =   0.0069444
        k(  161) = (   0.4176667   0.5779276   0.0000000), wk =   0.0069444
        k(  162) = (   0.4593333   0.2651962   0.0000000), wk =   0.0034722
        k(  163) = (   0.4593333   0.3133087   0.0000000), wk =   0.0069444
        k(  164) = (   0.4593333   0.3614213   0.0000000), wk =   0.0069444
        k(  165) = (   0.4593333   0.4095338   0.0000000), wk =   0.0069444
        k(  166) = (   0.4593333   0.4576463   0.0000000), wk =   0.0069444
        k(  167) = (   0.4593333   0.5057588   0.0000000), wk =   0.0069444
        k(  168) = (   0.4593333   0.5538714   0.0000000), wk =   0.0069444
        k(  169) = (   0.5010000   0.2892525   0.0000000), wk =   0.0034722
        k(  170) = (   0.5010000   0.3373650   0.0000000), wk =   0.0069444
        k(  171) = (   0.5010000   0.3854775   0.0000000), wk =   0.0069444
        k(  172) = (   0.5010000   0.4335901   0.0000000), wk =   0.0069444
        k(  173) = (   0.5010000   0.4817026   0.0000000), wk =   0.0069444
        k(  174) = (   0.5010000   0.5298151   0.0000000), wk =   0.0069444
        k(  175) = (   0.5010000   0.5779276   0.0000000), wk =   0.0069444
        k(  176) = (   0.5426667   0.3133087   0.0000000), wk =   0.0034722
        k(  177) = (   0.5426667   0.3614213   0.0000000), wk =   0.0069444
        k(  178) = (   0.5426667   0.4095338   0.0000000), wk =   0.0069444
        k(  179) = (   0.5426667   0.4576463   0.0000000), wk =   0.0069444
        k(  180) = (   0.5426667   0.5057588   0.0000000), wk =   0.0069444
        k(  181) = (   0.5426667   0.5538714   0.0000000), wk =   0.0069444
        k(  182) = (   0.5843333   0.3373650   0.0000000), wk =   0.0034722
        k(  183) = (   0.5843333   0.3854775   0.0000000), wk =   0.0069444
        k(  184) = (   0.5843333   0.4335901   0.0000000), wk =   0.0069444
        k(  185) = (   0.5843333   0.4817026   0.0000000), wk =   0.0069444
        k(  186) = (   0.5843333   0.5298151   0.0000000), wk =   0.0069444
        k(  187) = (   0.5843333   0.5779276   0.0000000), wk =   0.0069444
        k(  188) = (   0.6260000   0.3614213   0.0000000), wk =   0.0034722
        k(  189) = (   0.6260000   0.4095338   0.0000000), wk =   0.0069444
        k(  190) = (   0.6260000   0.4576463   0.0000000), wk =   0.0069444
        k(  191) = (   0.6260000   0.5057588   0.0000000), wk =   0.0069444
        k(  192) = (   0.6260000   0.5538714   0.0000000), wk =   0.0069444
        k(  193) = (   0.6676667   0.3854775   0.0000000), wk =   0.0034722
        k(  194) = (   0.6676667   0.4335901   0.0000000), wk =   0.0069444
        k(  195) = (   0.6676667   0.4817026   0.0000000), wk =   0.0069444
        k(  196) = (   0.6676667   0.5298151   0.0000000), wk =   0.0069444
        k(  197) = (   0.6676667   0.5779276   0.0000000), wk =   0.0069444
        k(  198) = (   0.7093333   0.4095338   0.0000000), wk =   0.0034722
        k(  199) = (   0.7093333   0.4576463   0.0000000), wk =   0.0069444
        k(  200) = (   0.7093333   0.5057588   0.0000000), wk =   0.0069444
        k(  201) = (   0.7093333   0.5538714   0.0000000), wk =   0.0069444
        k(  202) = (   0.7093333   1.0831091   0.0000000), wk =   0.0069444
        k(  203) = (   0.7093333   1.1312216   0.0000000), wk =   0.0069444
        k(  204) = (   0.7093333   1.1793342   0.0000000), wk =   0.0069444
        k(  205) = (   0.7510000   0.4335901   0.0000000), wk =   0.0034722
        k(  206) = (   0.7510000   0.4817026   0.0000000), wk =   0.0069444
        k(  207) = (   0.7510000   0.5298151   0.0000000), wk =   0.0069444
        k(  208) = (   0.7510000   0.5779276   0.0000000), wk =   0.0069444
        k(  209) = (   0.7510000   1.0109403   0.0000000), wk =   0.0069444
        k(  210) = (   0.7510000   1.0590528   0.0000000), wk =   0.0069444
        k(  211) = (   0.7510000   1.1071654   0.0000000), wk =   0.0069444
        k(  212) = (   0.7510000   1.1552779   0.0000000), wk =   0.0069444
        k(  213) = (   0.7510000   1.2033904   0.0000000), wk =   0.0069444
        k(  214) = (   0.7510000   1.2515029   0.0000000), wk =   0.0069444
        k(  215) = (   0.7926667   0.4576463   0.0000000), wk =   0.0034722
        k(  216) = (   0.7926667   0.5057588   0.0000000), wk =   0.0069444
        k(  217) = (   0.7926667   0.5538714   0.0000000), wk =   0.0069444
        k(  218) = (   0.7926667   0.9387715   0.0000000), wk =   0.0069444
        k(  219) = (   0.7926667   0.9868841   0.0000000), wk =   0.0069444
        k(  220) = (   0.7926667   1.0349966   0.0000000), wk =   0.0069444
        k(  221) = (   0.7926667   1.0831091   0.0000000), wk =   0.0069444
        k(  222) = (   0.7926667   1.1312216   0.0000000), wk =   0.0069444
        k(  223) = (   0.7926667   1.1793342   0.0000000), wk =   0.0069444
        k(  224) = (   0.7926667   1.2274467   0.0000000), wk =   0.0069444
        k(  225) = (   0.7926667   1.2755592   0.0000000), wk =   0.0069444
        k(  226) = (   0.7926667   1.3236717   0.0000000), wk =   0.0069444
        k(  227) = (   0.8343333   0.4817026   0.0000000), wk =   0.0034722
        k(  228) = (   0.8343333   0.5298151   0.0000000), wk =   0.0069444
        k(  229) = (   0.8343333   0.5779276   0.0000000), wk =   0.0069444
        k(  230) = (   0.8343333   0.8666028   0.0000000), wk =   0.0069444
        k(  231) = (   0.8343333   0.9147153   0.0000000), wk =   0.0069444
        k(  232) = (   0.8343333   0.9628278   0.0000000), wk =   0.0069444
        k(  233) = (   0.8343333   1.0109403   0.0000000), wk =   0.0069444
        k(  234) = (   0.8343333   1.0590528   0.0000000), wk =   0.0069444
        k(  235) = (   0.8343333   1.1071654   0.0000000), wk =   0.0069444
        k(  236) = (   0.8343333   1.1552779   0.0000000), wk =   0.0069444
        k(  237) = (   0.8343333   1.2033904   0.0000000), wk =   0.0069444
        k(  238) = (   0.8343333   1.2515029   0.0000000), wk =   0.0069444
        k(  239) = (   0.8343333   1.2996155   0.0000000), wk =   0.0069444
        k(  240) = (   0.8343333   1.3477280   0.0000000), wk =   0.0069444
        k(  241) = (   0.8343333   1.3958405   0.0000000), wk =   0.0069444
        k(  242) = (   0.8760000   0.5057588   0.0000000), wk =   0.0034722
        k(  243) = (   0.8760000   0.5538714   0.0000000), wk =   0.0069444
        k(  244) = (   0.8760000   0.7944340   0.0000000), wk =   0.0069444
        k(  245) = (   0.8760000   0.8425465   0.0000000), wk =   0.0069444
        k(  246) = (   0.8760000   0.8906590   0.0000000), wk =   0.0069444
        k(  247) = (   0.8760000   0.9387715   0.0000000), wk =   0.0069444
        k(  248) = (   0.8760000   0.9868841   0.0000000), wk =   0.0069444
        k(  249) = (   0.8760000   1.0349966   0.0000000), wk =   0.0069444
        k(  250) = (   0.8760000   1.0831091   0.0000000), wk =   0.0069444
        k(  251) = (   0.8760000   1.1312216   0.0000000), wk =   0.0069444
        k(  252) = (   0.8760000   1.1793341   0.0000000), wk =   0.0069444
        k(  253) = (   0.8760000   1.2274467   0.0000000), wk =   0.0069444
        k(  254) = (   0.8760000   1.2755592   0.0000000), wk =   0.0069444
        k(  255) = (   0.8760000   1.3236717   0.0000000), wk =   0.0069444
        k(  256) = (   0.8760000   1.3717842   0.0000000), wk =   0.0069444
        k(  257) = (   0.8760000   1.4198968   0.0000000), wk =   0.0069444
        k(  258) = (   0.8760000   1.4680093   0.0000000), wk =   0.0069444
        k(  259) = (   0.9176667   0.5298151   0.0000000), wk =   0.0034722
        k(  260) = (   0.9176667   0.5779276   0.0000000), wk =   0.0069444
        k(  261) = (   0.9176667   0.7222652   0.0000000), wk =   0.0069444
        k(  262) = (   0.9176667   0.7703777   0.0000000), wk =   0.0069444
        k(  263) = (   0.9176667   0.8184902   0.0000000), wk =   0.0069444
        k(  264) = (   0.9176667   0.8666028   0.0000000), wk =   0.0069444
        k(  265) = (   0.9176667   0.9147153   0.0000000), wk =   0.0069444
        k(  266) = (   0.9176667   0.9628278   0.0000000), wk =   0.0069444
        k(  267) = (   0.9176667   1.0109403   0.0000000), wk =   0.0069444
        k(  268) = (   0.9176667   1.0590528   0.0000000), wk =   0.0069444
        k(  269) = (   0.9176667   1.1071654   0.0000000), wk =   0.0069444
        k(  270) = (   0.9176667   1.1552779   0.0000000), wk =   0.0069444
        k(  271) = (   0.9176667   1.2033904   0.0000000), wk =   0.0069444
        k(  272) = (   0.9176667   1.2515029   0.0000000), wk =   0.0069444
        k(  273) = (   0.9176667   1.2996155   0.0000000), wk =   0.0069444
        k(  274) = (   0.9176667   1.3477280   0.0000000), wk =   0.0069444
        k(  275) = (   0.9176667   1.3958405   0.0000000), wk =   0.0069444
        k(  276) = (   0.9176667   1.4439530   0.0000000), wk =   0.0069444
        k(  277) = (   0.9176667   1.4920655   0.0000000), wk =   0.0069444
        k(  278) = (   0.9176667   1.5401781   0.0000000), wk =   0.0069444
        k(  279) = (   0.9593333   0.5538714   0.0000000), wk =   0.0034722
        k(  280) = (   0.9593333   0.6500964   0.0000000), wk =   0.0069444
        k(  281) = (   0.9593333   0.6982089   0.0000000), wk =   0.0069444
        k(  282) = (   0.9593333   0.7463214   0.0000000), wk =   0.0069444
        k(  283) = (   0.9593333   0.7944340   0.0000000), wk =   0.0069444
        k(  284) = (   0.9593333   0.8425465   0.0000000), wk =   0.0069444
        k(  285) = (   0.9593333   0.8906590   0.0000000), wk =   0.0069444
        k(  286) = (   0.9593333   0.9387715   0.0000000), wk =   0.0069444
        k(  287) = (   0.9593333   0.9868841   0.0000000), wk =   0.0069444
        k(  288) = (   0.9593333   1.0349966   0.0000000), wk =   0.0069444
        k(  289) = (   0.9593333   1.0831091   0.0000000), wk =   0.0069444
        k(  290) = (   0.9593333   1.1312216   0.0000000), wk =   0.0069444
        k(  291) = (   0.9593333   1.1793342   0.0000000), wk =   0.0069444
        k(  292) = (   0.9593333   1.2274467   0.0000000), wk =   0.0069444
        k(  293) = (   0.9593333   1.2755592   0.0000000), wk =   0.0069444
        k(  294) = (   0.9593333   1.3236717   0.0000000), wk =   0.0069444
        k(  295) = (   0.9593333   1.3717842   0.0000000), wk =   0.0069444
        k(  296) = (   0.9593333   1.4198968   0.0000000), wk =   0.0069444
        k(  297) = (   0.9593333   1.4680093   0.0000000), wk =   0.0069444
        k(  298) = (   0.9593333   1.5161218   0.0000000), wk =   0.0069444
        k(  299) = (   0.9593333   1.5642343   0.0000000), wk =   0.0069444
        k(  300) = (   0.9593333   1.6123469   0.0000000), wk =   0.0069444

                       cryst. coord.
        k(    1) = (   0.0010000   0.0000000   0.0000000), wk =   0.0034722
        k(    2) = (   0.0010000   0.0416667   0.0000000), wk =   0.0069444
        k(    3) = (   0.0010000   0.0833333   0.0000000), wk =   0.0069444
        k(    4) = (   0.0010000   0.1250000   0.0000000), wk =   0.0069444
        k(    5) = (   0.0010000   0.1666667   0.0000000), wk =   0.0069444
        k(    6) = (   0.0010000   0.2083333   0.0000000), wk =   0.0069444
        k(    7) = (   0.0010000   0.2500000   0.0000000), wk =   0.0069444
        k(    8) = (   0.0010000   0.2916667   0.0000000), wk =   0.0069444
        k(    9) = (   0.0010000   0.3333333   0.0000000), wk =   0.0069444
        k(   10) = (   0.0010000   0.3750000   0.0000000), wk =   0.0069444
        k(   11) = (   0.0010000   0.4166667   0.0000000), wk =   0.0069444
        k(   12) = (   0.0010000   0.4583333   0.0000000), wk =   0.0069444
        k(   13) = (   0.0010000   0.5000000   0.0000000), wk =   0.0069444
        k(   14) = (   0.0010000   0.5416667   0.0000000), wk =   0.0069444
        k(   15) = (   0.0010000   0.5833333   0.0000000), wk =   0.0069444
        k(   16) = (   0.0010000   0.6250000   0.0000000), wk =   0.0069444
        k(   17) = (   0.0010000   0.6666667   0.0000000), wk =   0.0069444
        k(   18) = (   0.0010000   0.7083333   0.0000000), wk =   0.0069444
        k(   19) = (   0.0010000   0.7500000   0.0000000), wk =   0.0069444
        k(   20) = (   0.0010000   0.7916667   0.0000000), wk =   0.0069444
        k(   21) = (   0.0010000   0.8333333   0.0000000), wk =   0.0069444
        k(   22) = (   0.0010000   0.8750000   0.0000000), wk =   0.0069444
        k(   23) = (   0.0010000   0.9166667   0.0000000), wk =   0.0069444
        k(   24) = (   0.0010000   0.9583333   0.0000000), wk =   0.0069444
        k(   25) = (   0.0426667  -0.0000000   0.0000000), wk =   0.0034722
        k(   26) = (   0.0426667   0.0416667   0.0000000), wk =   0.0069444
        k(   27) = (   0.0426667   0.0833333   0.0000000), wk =   0.0069444
        k(   28) = (   0.0426667   0.1250000   0.0000000), wk =   0.0069444
        k(   29) = (   0.0426667   0.1666667   0.0000000), wk =   0.0069444
        k(   30) = (   0.0426667   0.2083333   0.0000000), wk =   0.0069444
        k(   31) = (   0.0426667   0.2500000   0.0000000), wk =   0.0069444
        k(   32) = (   0.0426667   0.2916667   0.0000000), wk =   0.0069444
        k(   33) = (   0.0426667   0.3333333   0.0000000), wk =   0.0069444
        k(   34) = (   0.0426667   0.3750000   0.0000000), wk =   0.0069444
        k(   35) = (   0.0426667   0.4166667   0.0000000), wk =   0.0069444
        k(   36) = (   0.0426667   0.4583333   0.0000000), wk =   0.0069444
        k(   37) = (   0.0426667   0.5000000   0.0000000), wk =   0.0069444
        k(   38) = (   0.0426667   0.5416667   0.0000000), wk =   0.0069444
        k(   39) = (   0.0426667   0.5833333   0.0000000), wk =   0.0069444
        k(   40) = (   0.0426667   0.6250000   0.0000000), wk =   0.0069444
        k(   41) = (   0.0426667   0.6666667   0.0000000), wk =   0.0069444
        k(   42) = (   0.0426667   0.7083333   0.0000000), wk =   0.0069444
        k(   43) = (   0.0426667   0.7500000   0.0000000), wk =   0.0069444
        k(   44) = (   0.0426667   0.7916667   0.0000000), wk =   0.0069444
        k(   45) = (   0.0426667   0.8333333   0.0000000), wk =   0.0069444
        k(   46) = (   0.0426667   0.8750000   0.0000000), wk =   0.0069444
        k(   47) = (   0.0843333   0.0000000   0.0000000), wk =   0.0034722
        k(   48) = (   0.0843333   0.0416667   0.0000000), wk =   0.0069444
        k(   49) = (   0.0843333   0.0833333   0.0000000), wk =   0.0069444
        k(   50) = (   0.0843333   0.1250000   0.0000000), wk =   0.0069444
        k(   51) = (   0.0843333   0.1666667   0.0000000), wk =   0.0069444
        k(   52) = (   0.0843333   0.2083333   0.0000000), wk =   0.0069444
        k(   53) = (   0.0843333   0.2500000   0.0000000), wk =   0.0069444
        k(   54) = (   0.0843333   0.2916667   0.0000000), wk =   0.0069444
        k(   55) = (   0.0843333   0.3333333   0.0000000), wk =   0.0069444
        k(   56) = (   0.0843333   0.3750000   0.0000000), wk =   0.0069444
        k(   57) = (   0.0843333   0.4166667   0.0000000), wk =   0.0069444
        k(   58) = (   0.0843333   0.4583333   0.0000000), wk =   0.0069444
        k(   59) = (   0.0843333   0.5000000   0.0000000), wk =   0.0069444
        k(   60) = (   0.0843333   0.5416667   0.0000000), wk =   0.0069444
        k(   61) = (   0.0843333   0.5833333   0.0000000), wk =   0.0069444
        k(   62) = (   0.0843333   0.6250000   0.0000000), wk =   0.0069444
        k(   63) = (   0.0843333   0.6666667   0.0000000), wk =   0.0069444
        k(   64) = (   0.0843333   0.7083333   0.0000000), wk =   0.0069444
        k(   65) = (   0.0843333   0.7500000   0.0000000), wk =   0.0069444
        k(   66) = (   0.0843333   0.7916667   0.0000000), wk =   0.0069444
        k(   67) = (   0.1260000   0.0000000   0.0000000), wk =   0.0034722
        k(   68) = (   0.1260000   0.0416667   0.0000000), wk =   0.0069444
        k(   69) = (   0.1260000   0.0833333   0.0000000), wk =   0.0069444
        k(   70) = (   0.1260000   0.1250000   0.0000000), wk =   0.0069444
        k(   71) = (   0.1260000   0.1666667   0.0000000), wk =   0.0069444
        k(   72) = (   0.1260000   0.2083333   0.0000000), wk =   0.0069444
        k(   73) = (   0.1260000   0.2500000   0.0000000), wk =   0.0069444
        k(   74) = (   0.1260000   0.2916667   0.0000000), wk =   0.0069444
        k(   75) = (   0.1260000   0.3333333   0.0000000), wk =   0.0069444
        k(   76) = (   0.1260000   0.3750000   0.0000000), wk =   0.0069444
        k(   77) = (   0.1260000   0.4166667   0.0000000), wk =   0.0069444
        k(   78) = (   0.1260000   0.4583333   0.0000000), wk =   0.0069444
        k(   79) = (   0.1260000   0.5000000   0.0000000), wk =   0.0069444
        k(   80) = (   0.1260000   0.5416667   0.0000000), wk =   0.0069444
        k(   81) = (   0.1260000   0.5833333   0.0000000), wk =   0.0069444
        k(   82) = (   0.1260000   0.6250000   0.0000000), wk =   0.0069444
        k(   83) = (   0.1260000   0.6666667   0.0000000), wk =   0.0069444
        k(   84) = (   0.1260000   0.7083333   0.0000000), wk =   0.0069444
        k(   85) = (   0.1676667  -0.0000000   0.0000000), wk =   0.0034722
        k(   86) = (   0.1676667   0.0416667   0.0000000), wk =   0.0069444
        k(   87) = (   0.1676667   0.0833333   0.0000000), wk =   0.0069444
        k(   88) = (   0.1676667   0.1250000   0.0000000), wk =   0.0069444
        k(   89) = (   0.1676667   0.1666667   0.0000000), wk =   0.0069444
        k(   90) = (   0.1676667   0.2083333   0.0000000), wk =   0.0069444
        k(   91) = (   0.1676667   0.2500000   0.0000000), wk =   0.0069444
        k(   92) = (   0.1676667   0.2916667   0.0000000), wk =   0.0069444
        k(   93) = (   0.1676667   0.3333333   0.0000000), wk =   0.0069444
        k(   94) = (   0.1676667   0.3750000   0.0000000), wk =   0.0069444
        k(   95) = (   0.1676667   0.4166667   0.0000000), wk =   0.0069444
        k(   96) = (   0.1676667   0.4583333   0.0000000), wk =   0.0069444
        k(   97) = (   0.1676667   0.5000000   0.0000000), wk =   0.0069444
        k(   98) = (   0.1676667   0.5416667   0.0000000), wk =   0.0069444
        k(   99) = (   0.1676667   0.5833333   0.0000000), wk =   0.0069444
        k(  100) = (   0.1676667   0.6250000   0.0000000), wk =   0.0069444
        k(  101) = (   0.2093333   0.0000000   0.0000000), wk =   0.0034722
        k(  102) = (   0.2093333   0.0416667   0.0000000), wk =   0.0069444
        k(  103) = (   0.2093333   0.0833333   0.0000000), wk =   0.0069444
        k(  104) = (   0.2093333   0.1250000   0.0000000), wk =   0.0069444
        k(  105) = (   0.2093333   0.1666667   0.0000000), wk =   0.0069444
        k(  106) = (   0.2093333   0.2083333   0.0000000), wk =   0.0069444
        k(  107) = (   0.2093333   0.2500000   0.0000000), wk =   0.0069444
        k(  108) = (   0.2093333   0.2916667   0.0000000), wk =   0.0069444
        k(  109) = (   0.2093333   0.3333333   0.0000000), wk =   0.0069444
        k(  110) = (   0.2093333   0.3750000   0.0000000), wk =   0.0069444
        k(  111) = (   0.2093333   0.4166667   0.0000000), wk =   0.0069444
        k(  112) = (   0.2093333   0.4583333   0.0000000), wk =   0.0069444
        k(  113) = (   0.2093333   0.5000000   0.0000000), wk =   0.0069444
        k(  114) = (   0.2093333   0.5416667   0.0000000), wk =   0.0069444
        k(  115) = (   0.2510000   0.0000000   0.0000000), wk =   0.0034722
        k(  116) = (   0.2510000   0.0416667   0.0000000), wk =   0.0069444
        k(  117) = (   0.2510000   0.0833333   0.0000000), wk =   0.0069444
        k(  118) = (   0.2510000   0.1250000   0.0000000), wk =   0.0069444
        k(  119) = (   0.2510000   0.1666667   0.0000000), wk =   0.0069444
        k(  120) = (   0.2510000   0.2083333   0.0000000), wk =   0.0069444
        k(  121) = (   0.2510000   0.2500000   0.0000000), wk =   0.0069444
        k(  122) = (   0.2510000   0.2916667   0.0000000), wk =   0.0069444
        k(  123) = (   0.2510000   0.3333333   0.0000000), wk =   0.0069444
        k(  124) = (   0.2510000   0.3750000   0.0000000), wk =   0.0069444
        k(  125) = (   0.2510000   0.4166667   0.0000000), wk =   0.0069444
        k(  126) = (   0.2510000   0.4583333   0.0000000), wk =   0.0069444
        k(  127) = (   0.2926667   0.0000000   0.0000000), wk =   0.0034722
        k(  128) = (   0.2926667   0.0416667   0.0000000), wk =   0.0069444
        k(  129) = (   0.2926667   0.0833333   0.0000000), wk =   0.0069444
        k(  130) = (   0.2926667   0.1250000   0.0000000), wk =   0.0069444
        k(  131) = (   0.2926667   0.1666667   0.0000000), wk =   0.0069444
        k(  132) = (   0.2926667   0.2083333   0.0000000), wk =   0.0069444
        k(  133) = (   0.2926667   0.2500000   0.0000000), wk =   0.0069444
        k(  134) = (   0.2926667   0.2916667   0.0000000), wk =   0.0069444
        k(  135) = (   0.2926667   0.3333333   0.0000000), wk =   0.0069444
        k(  136) = (   0.2926667   0.3750000   0.0000000), wk =   0.0069444
        k(  137) = (   0.3343333  -0.0000000   0.0000000), wk =   0.0034722
        k(  138) = (   0.3343333   0.0416667   0.0000000), wk =   0.0069444
        k(  139) = (   0.3343333   0.0833333   0.0000000), wk =   0.0069444
        k(  140) = (   0.3343333   0.1250000   0.0000000), wk =   0.0069444
        k(  141) = (   0.3343333   0.1666667   0.0000000), wk =   0.0069444
        k(  142) = (   0.3343333   0.2083333   0.0000000), wk =   0.0069444
        k(  143) = (   0.3343333   0.2500000   0.0000000), wk =   0.0069444
        k(  144) = (   0.3343333   0.2916667   0.0000000), wk =   0.0069444
        k(  145) = (   0.3343333   0.3333333   0.0000000), wk =   0.0069444
        k(  146) = (   0.3760000   0.0000000   0.0000000), wk =   0.0034722
        k(  147) = (   0.3760000   0.0416667   0.0000000), wk =   0.0069444
        k(  148) = (   0.3760000   0.0833333   0.0000000), wk =   0.0069444
        k(  149) = (   0.3760000   0.1250000   0.0000000), wk =   0.0069444
        k(  150) = (   0.3760000   0.1666667   0.0000000), wk =   0.0069444
        k(  151) = (   0.3760000   0.2083333   0.0000000), wk =   0.0069444
        k(  152) = (   0.3760000   0.2500000   0.0000000), wk =   0.0069444
        k(  153) = (   0.3760000   0.2916667   0.0000000), wk =   0.0069444
        k(  154) = (   0.4176667   0.0000000   0.0000000), wk =   0.0034722
        k(  155) = (   0.4176667   0.0416667   0.0000000), wk =   0.0069444
        k(  156) = (   0.4176667   0.0833333   0.0000000), wk =   0.0069444
        k(  157) = (   0.4176667   0.1250000   0.0000000), wk =   0.0069444
        k(  158) = (   0.4176667   0.1666667   0.0000000), wk =   0.0069444
        k(  159) = (   0.4176667   0.2083333   0.0000000), wk =   0.0069444
        k(  160) = (   0.4176667   0.2500000   0.0000000), wk =   0.0069444
        k(  161) = (   0.4176667   0.2916667   0.0000000), wk =   0.0069444
        k(  162) = (   0.4593333   0.0000000   0.0000000), wk =   0.0034722
        k(  163) = (   0.4593333   0.0416667   0.0000000), wk =   0.0069444
        k(  164) = (   0.4593333   0.0833333   0.0000000), wk =   0.0069444
        k(  165) = (   0.4593333   0.1250000   0.0000000), wk =   0.0069444
        k(  166) = (   0.4593333   0.1666667   0.0000000), wk =   0.0069444
        k(  167) = (   0.4593333   0.2083333   0.0000000), wk =   0.0069444
        k(  168) = (   0.4593333   0.2500000   0.0000000), wk =   0.0069444
        k(  169) = (   0.5010000   0.0000000   0.0000000), wk =   0.0034722
        k(  170) = (   0.5010000   0.0416667   0.0000000), wk =   0.0069444
        k(  171) = (   0.5010000   0.0833333   0.0000000), wk =   0.0069444
        k(  172) = (   0.5010000   0.1250000   0.0000000), wk =   0.0069444
        k(  173) = (   0.5010000   0.1666667   0.0000000), wk =   0.0069444
        k(  174) = (   0.5010000   0.2083333   0.0000000), wk =   0.0069444
        k(  175) = (   0.5010000   0.2500000   0.0000000), wk =   0.0069444
        k(  176) = (   0.5426667   0.0000000   0.0000000), wk =   0.0034722
        k(  177) = (   0.5426667   0.0416667   0.0000000), wk =   0.0069444
        k(  178) = (   0.5426667   0.0833333   0.0000000), wk =   0.0069444
        k(  179) = (   0.5426667   0.1250000   0.0000000), wk =   0.0069444
        k(  180) = (   0.5426667   0.1666667   0.0000000), wk =   0.0069444
        k(  181) = (   0.5426667   0.2083333   0.0000000), wk =   0.0069444
        k(  182) = (   0.5843333   0.0000000   0.0000000), wk =   0.0034722
        k(  183) = (   0.5843333   0.0416667   0.0000000), wk =   0.0069444
        k(  184) = (   0.5843333   0.0833333   0.0000000), wk =   0.0069444
        k(  185) = (   0.5843333   0.1250000   0.0000000), wk =   0.0069444
        k(  186) = (   0.5843333   0.1666667   0.0000000), wk =   0.0069444
        k(  187) = (   0.5843333   0.2083333   0.0000000), wk =   0.0069444
        k(  188) = (   0.6260000  -0.0000000   0.0000000), wk =   0.0034722
        k(  189) = (   0.6260000   0.0416667   0.0000000), wk =   0.0069444
        k(  190) = (   0.6260000   0.0833333   0.0000000), wk =   0.0069444
        k(  191) = (   0.6260000   0.1250000   0.0000000), wk =   0.0069444
        k(  192) = (   0.6260000   0.1666667   0.0000000), wk =   0.0069444
        k(  193) = (   0.6676667   0.0000000   0.0000000), wk =   0.0034722
        k(  194) = (   0.6676667   0.0416667   0.0000000), wk =   0.0069444
        k(  195) = (   0.6676667   0.0833333   0.0000000), wk =   0.0069444
        k(  196) = (   0.6676667   0.1250000   0.0000000), wk =   0.0069444
        k(  197) = (   0.6676667   0.1666667   0.0000000), wk =   0.0069444
        k(  198) = (   0.7093333   0.0000000   0.0000000), wk =   0.0034722
        k(  199) = (   0.7093333   0.0416667   0.0000000), wk =   0.0069444
        k(  200) = (   0.7093333   0.0833333   0.0000000), wk =   0.0069444
        k(  201) = (   0.7093333   0.1250000   0.0000000), wk =   0.0069444
        k(  202) = (   0.7093333   0.5833333   0.0000000), wk =   0.0069444
        k(  203) = (   0.7093333   0.6250000   0.0000000), wk =   0.0069444
        k(  204) = (   0.7093333   0.6666667   0.0000000), wk =   0.0069444
        k(  205) = (   0.7510000   0.0000000   0.0000000), wk =   0.0034722
        k(  206) = (   0.7510000   0.0416667   0.0000000), wk =   0.0069444
        k(  207) = (   0.7510000   0.0833333   0.0000000), wk =   0.0069444
        k(  208) = (   0.7510000   0.1250000   0.0000000), wk =   0.0069444
        k(  209) = (   0.7510000   0.5000000   0.0000000), wk =   0.0069444
        k(  210) = (   0.7510000   0.5416667   0.0000000), wk =   0.0069444
        k(  211) = (   0.7510000   0.5833333   0.0000000), wk =   0.0069444
        k(  212) = (   0.7510000   0.6250000   0.0000000), wk =   0.0069444
        k(  213) = (   0.7510000   0.6666667   0.0000000), wk =   0.0069444
        k(  214) = (   0.7510000   0.7083333   0.0000000), wk =   0.0069444
        k(  215) = (   0.7926667   0.0000000   0.0000000), wk =   0.0034722
        k(  216) = (   0.7926667   0.0416667   0.0000000), wk =   0.0069444
        k(  217) = (   0.7926667   0.0833333   0.0000000), wk =   0.0069444
        k(  218) = (   0.7926667   0.4166667   0.0000000), wk =   0.0069444
        k(  219) = (   0.7926667   0.4583333   0.0000000), wk =   0.0069444
        k(  220) = (   0.7926667   0.5000000   0.0000000), wk =   0.0069444
        k(  221) = (   0.7926667   0.5416667   0.0000000), wk =   0.0069444
        k(  222) = (   0.7926667   0.5833333   0.0000000), wk =   0.0069444
        k(  223) = (   0.7926667   0.6250000   0.0000000), wk =   0.0069444
        k(  224) = (   0.7926667   0.6666667   0.0000000), wk =   0.0069444
        k(  225) = (   0.7926667   0.7083333   0.0000000), wk =   0.0069444
        k(  226) = (   0.7926667   0.7500000   0.0000000), wk =   0.0069444
        k(  227) = (   0.8343333   0.0000000   0.0000000), wk =   0.0034722
        k(  228) = (   0.8343333   0.0416667   0.0000000), wk =   0.0069444
        k(  229) = (   0.8343333   0.0833333   0.0000000), wk =   0.0069444
        k(  230) = (   0.8343333   0.3333333   0.0000000), wk =   0.0069444
        k(  231) = (   0.8343333   0.3750000   0.0000000), wk =   0.0069444
        k(  232) = (   0.8343333   0.4166667   0.0000000), wk =   0.0069444
        k(  233) = (   0.8343333   0.4583333   0.0000000), wk =   0.0069444
        k(  234) = (   0.8343333   0.5000000   0.0000000), wk =   0.0069444
        k(  235) = (   0.8343333   0.5416667   0.0000000), wk =   0.0069444
        k(  236) = (   0.8343333   0.5833333   0.0000000), wk =   0.0069444
        k(  237) = (   0.8343333   0.6250000   0.0000000), wk =   0.0069444
        k(  238) = (   0.8343333   0.6666667   0.0000000), wk =   0.0069444
        k(  239) = (   0.8343333   0.7083333   0.0000000), wk =   0.0069444
        k(  240) = (   0.8343333   0.7500000   0.0000000), wk =   0.0069444
        k(  241) = (   0.8343333   0.7916667   0.0000000), wk =   0.0069444
        k(  242) = (   0.8760000   0.0000000   0.0000000), wk =   0.0034722
        k(  243) = (   0.8760000   0.0416667   0.0000000), wk =   0.0069444
        k(  244) = (   0.8760000   0.2500000   0.0000000), wk =   0.0069444
        k(  245) = (   0.8760000   0.2916667   0.0000000), wk =   0.0069444
        k(  246) = (   0.8760000   0.3333333   0.0000000), wk =   0.0069444
        k(  247) = (   0.8760000   0.3750000   0.0000000), wk =   0.0069444
        k(  248) = (   0.8760000   0.4166667   0.0000000), wk =   0.0069444
        k(  249) = (   0.8760000   0.4583333   0.0000000), wk =   0.0069444
        k(  250) = (   0.8760000   0.5000000   0.0000000), wk =   0.0069444
        k(  251) = (   0.8760000   0.5416667   0.0000000), wk =   0.0069444
        k(  252) = (   0.8760000   0.5833333   0.0000000), wk =   0.0069444
        k(  253) = (   0.8760000   0.6250000   0.0000000), wk =   0.0069444
        k(  254) = (   0.8760000   0.6666667   0.0000000), wk =   0.0069444
        k(  255) = (   0.8760000   0.7083333   0.0000000), wk =   0.0069444
        k(  256) = (   0.8760000   0.7500000   0.0000000), wk =   0.0069444
        k(  257) = (   0.8760000   0.7916667   0.0000000), wk =   0.0069444
        k(  258) = (   0.8760000   0.8333333   0.0000000), wk =   0.0069444
        k(  259) = (   0.9176667  -0.0000000   0.0000000), wk =   0.0034722
        k(  260) = (   0.9176667   0.0416667   0.0000000), wk =   0.0069444
        k(  261) = (   0.9176667   0.1666667   0.0000000), wk =   0.0069444
        k(  262) = (   0.9176667   0.2083333   0.0000000), wk =   0.0069444
        k(  263) = (   0.9176667   0.2500000   0.0000000), wk =   0.0069444
        k(  264) = (   0.9176667   0.2916667   0.0000000), wk =   0.0069444
        k(  265) = (   0.9176667   0.3333333   0.0000000), wk =   0.0069444
        k(  266) = (   0.9176667   0.3750000   0.0000000), wk =   0.0069444
        k(  267) = (   0.9176667   0.4166667   0.0000000), wk =   0.0069444
        k(  268) = (   0.9176667   0.4583333   0.0000000), wk =   0.0069444
        k(  269) = (   0.9176667   0.5000000   0.0000000), wk =   0.0069444
        k(  270) = (   0.9176667   0.5416667   0.0000000), wk =   0.0069444
        k(  271) = (   0.9176667   0.5833333   0.0000000), wk =   0.0069444
        k(  272) = (   0.9176667   0.6250000   0.0000000), wk =   0.0069444
        k(  273) = (   0.9176667   0.6666667   0.0000000), wk =   0.0069444
        k(  274) = (   0.9176667   0.7083333   0.0000000), wk =   0.0069444
        k(  275) = (   0.9176667   0.7500000   0.0000000), wk =   0.0069444
        k(  276) = (   0.9176667   0.7916667   0.0000000), wk =   0.0069444
        k(  277) = (   0.9176667   0.8333333   0.0000000), wk =   0.0069444
        k(  278) = (   0.9176667   0.8750000   0.0000000), wk =   0.0069444
        k(  279) = (   0.9593333  -0.0000000   0.0000000), wk =   0.0034722
        k(  280) = (   0.9593333   0.0833333   0.0000000), wk =   0.0069444
        k(  281) = (   0.9593333   0.1250000   0.0000000), wk =   0.0069444
        k(  282) = (   0.9593333   0.1666667   0.0000000), wk =   0.0069444
        k(  283) = (   0.9593333   0.2083333   0.0000000), wk =   0.0069444
        k(  284) = (   0.9593333   0.2500000   0.0000000), wk =   0.0069444
        k(  285) = (   0.9593333   0.2916667   0.0000000), wk =   0.0069444
        k(  286) = (   0.9593333   0.3333333   0.0000000), wk =   0.0069444
        k(  287) = (   0.9593333   0.3750000   0.0000000), wk =   0.0069444
        k(  288) = (   0.9593333   0.4166667   0.0000000), wk =   0.0069444
        k(  289) = (   0.9593333   0.4583333   0.0000000), wk =   0.0069444
        k(  290) = (   0.9593333   0.5000000   0.0000000), wk =   0.0069444
        k(  291) = (   0.9593333   0.5416667   0.0000000), wk =   0.0069444
        k(  292) = (   0.9593333   0.5833333   0.0000000), wk =   0.0069444
        k(  293) = (   0.9593333   0.6250000   0.0000000), wk =   0.0069444
        k(  294) = (   0.9593333   0.6666667   0.0000000), wk =   0.0069444
        k(  295) = (   0.9593333   0.7083333   0.0000000), wk =   0.0069444
        k(  296) = (   0.9593333   0.7500000   0.0000000), wk =   0.0069444
        k(  297) = (   0.9593333   0.7916667   0.0000000), wk =   0.0069444
        k(  298) = (   0.9593333   0.8333333   0.0000000), wk =   0.0069444
        k(  299) = (   0.9593333   0.8750000   0.0000000), wk =   0.0069444
        k(  300) = (   0.9593333   0.9166667   0.0000000), wk =   0.0069444

     Dense  grid:    58173 G-vectors     FFT dimensions: (  25,  25, 216)

     Dynamical RAM for                 wfc:       0.09 MB

     Dynamical RAM for     wfc (w. buffer):       0.09 MB

     Dynamical RAM for           str. fact:       0.03 MB

     Dynamical RAM for           local pot:       0.00 MB

     Dynamical RAM for          nlocal pot:       0.03 MB

     Dynamical RAM for                qrad:       0.77 MB

     Dynamical RAM for          rho,v,vnew:       0.10 MB

     Dynamical RAM for           G-vectors:       0.06 MB

     Dynamical RAM for          h,s,v(r/c):       1.83 MB

     Dynamical RAM for          <psi|beta>:       0.01 MB

     Dynamical RAM for                 psi:       0.34 MB

     Dynamical RAM for                hpsi:       0.34 MB

     Dynamical RAM for      wfcinit/wfcrot:       0.23 MB

     Estimated static dynamical RAM per process >       1.20 MB

     Estimated max dynamical RAM per process >       3.73 MB

     Estimated total dynamical RAM >     238.82 MB

     The potential is recalculated from file :
     ./bn.save/charge-density

     Starting wfcs are    8 randomized atomic wfcs +   42 random wfcs

     Band Structure Calculation
     Davidson diagonalization with overlap

     Computing kpt #:     1  of   300
     total cpu time spent up to now is        1.1 secs

     Computing kpt #:     2  of   300
     total cpu time spent up to now is        1.7 secs

     Computing kpt #:     3  of   300
     total cpu time spent up to now is        2.2 secs

     Computing kpt #:     4  of   300
     total cpu time spent up to now is        2.6 secs

     Computing kpt #:     5  of   300
     total cpu time spent up to now is        3.0 secs

     Computing kpt #:     6  of   300
     total cpu time spent up to now is        3.4 secs

     Computing kpt #:     7  of   300
     total cpu time spent up to now is        3.8 secs

     Computing kpt #:     8  of   300
     total cpu time spent up to now is        4.2 secs

     Computing kpt #:     9  of   300
     total cpu time spent up to now is        4.6 secs

     Computing kpt #:    10  of   300
     total cpu time spent up to now is        5.0 secs

     Computing kpt #:    11  of   300
     total cpu time spent up to now is        5.3 secs

     Computing kpt #:    12  of   300
     total cpu time spent up to now is        5.7 secs

     Computing kpt #:    13  of   300
     total cpu time spent up to now is        6.1 secs

     Computing kpt #:    14  of   300
     total cpu time spent up to now is        6.4 secs

     Computing kpt #:    15  of   300
     total cpu time spent up to now is        6.8 secs

     Computing kpt #:    16  of   300
     total cpu time spent up to now is        7.2 secs

     Computing kpt #:    17  of   300
     total cpu time spent up to now is        7.6 secs

     Computing kpt #:    18  of   300
     total cpu time spent up to now is        8.0 secs

     Computing kpt #:    19  of   300
     total cpu time spent up to now is        8.4 secs

     Computing kpt #:    20  of   300
     total cpu time spent up to now is        8.8 secs

     Computing kpt #:    21  of   300
     total cpu time spent up to now is        9.2 secs

     Computing kpt #:    22  of   300
     total cpu time spent up to now is        9.5 secs

     Computing kpt #:    23  of   300
     total cpu time spent up to now is       10.0 secs

     Computing kpt #:    24  of   300
     total cpu time spent up to now is       10.5 secs

     Computing kpt #:    25  of   300
     total cpu time spent up to now is       11.0 secs

     Computing kpt #:    26  of   300
     total cpu time spent up to now is       11.5 secs

     Computing kpt #:    27  of   300
     total cpu time spent up to now is       12.0 secs

     Computing kpt #:    28  of   300
     total cpu time spent up to now is       12.4 secs

     Computing kpt #:    29  of   300
     total cpu time spent up to now is       12.7 secs

     Computing kpt #:    30  of   300
     total cpu time spent up to now is       13.1 secs

     Computing kpt #:    31  of   300
     total cpu time spent up to now is       13.5 secs

     Computing kpt #:    32  of   300
     total cpu time spent up to now is       13.8 secs

     Computing kpt #:    33  of   300
     total cpu time spent up to now is       14.2 secs

     Computing kpt #:    34  of   300
     total cpu time spent up to now is       14.5 secs

     Computing kpt #:    35  of   300
     total cpu time spent up to now is       14.9 secs

     Computing kpt #:    36  of   300
     total cpu time spent up to now is       15.2 secs

     Computing kpt #:    37  of   300
     total cpu time spent up to now is       15.6 secs

     Computing kpt #:    38  of   300
     total cpu time spent up to now is       16.0 secs

     Computing kpt #:    39  of   300
     total cpu time spent up to now is       16.3 secs

     Computing kpt #:    40  of   300
     total cpu time spent up to now is       16.7 secs

     Computing kpt #:    41  of   300
     total cpu time spent up to now is       17.0 secs

     Computing kpt #:    42  of   300
     total cpu time spent up to now is       17.4 secs

     Computing kpt #:    43  of   300
     total cpu time spent up to now is       17.8 secs

     Computing kpt #:    44  of   300
     total cpu time spent up to now is       18.1 secs

     Computing kpt #:    45  of   300
     total cpu time spent up to now is       18.5 secs

     Computing kpt #:    46  of   300
     total cpu time spent up to now is       18.9 secs

     Computing kpt #:    47  of   300
     total cpu time spent up to now is       19.3 secs

     Computing kpt #:    48  of   300
     total cpu time spent up to now is       19.7 secs

     Computing kpt #:    49  of   300
     total cpu time spent up to now is       20.1 secs

     Computing kpt #:    50  of   300
     total cpu time spent up to now is       20.5 secs

     Computing kpt #:    51  of   300
     total cpu time spent up to now is       20.9 secs

     Computing kpt #:    52  of   300
     total cpu time spent up to now is       21.2 secs

     Computing kpt #:    53  of   300
     total cpu time spent up to now is       21.6 secs

     Computing kpt #:    54  of   300
     total cpu time spent up to now is       21.9 secs

     Computing kpt #:    55  of   300
     total cpu time spent up to now is       22.3 secs

     Computing kpt #:    56  of   300
     total cpu time spent up to now is       22.7 secs

     Computing kpt #:    57  of   300
     total cpu time spent up to now is       23.0 secs

     Computing kpt #:    58  of   300
     total cpu time spent up to now is       23.4 secs

     Computing kpt #:    59  of   300
     total cpu time spent up to now is       23.8 secs

     Computing kpt #:    60  of   300
     total cpu time spent up to now is       24.1 secs

     Computing kpt #:    61  of   300
     total cpu time spent up to now is       24.5 secs

     Computing kpt #:    62  of   300
     total cpu time spent up to now is       24.9 secs

     Computing kpt #:    63  of   300
     total cpu time spent up to now is       25.2 secs

     Computing kpt #:    64  of   300
     total cpu time spent up to now is       25.6 secs

     Computing kpt #:    65  of   300
     total cpu time spent up to now is       25.9 secs

     Computing kpt #:    66  of   300
     total cpu time spent up to now is       26.4 secs

     Computing kpt #:    67  of   300
     total cpu time spent up to now is       26.7 secs

     Computing kpt #:    68  of   300
     total cpu time spent up to now is       27.1 secs

     Computing kpt #:    69  of   300
     total cpu time spent up to now is       27.5 secs

     Computing kpt #:    70  of   300
     total cpu time spent up to now is       27.9 secs

     Computing kpt #:    71  of   300
     total cpu time spent up to now is       28.2 secs

     Computing kpt #:    72  of   300
     total cpu time spent up to now is       28.6 secs

     Computing kpt #:    73  of   300
     total cpu time spent up to now is       29.0 secs

     Computing kpt #:    74  of   300
     total cpu time spent up to now is       29.3 secs

     Computing kpt #:    75  of   300
     total cpu time spent up to now is       29.6 secs

     Computing kpt #:    76  of   300
     total cpu time spent up to now is       30.0 secs

     Computing kpt #:    77  of   300
     total cpu time spent up to now is       30.3 secs

     Computing kpt #:    78  of   300
     total cpu time spent up to now is       30.7 secs

     Computing kpt #:    79  of   300
     total cpu time spent up to now is       31.0 secs

     Computing kpt #:    80  of   300
     total cpu time spent up to now is       31.4 secs

     Computing kpt #:    81  of   300
     total cpu time spent up to now is       31.8 secs

     Computing kpt #:    82  of   300
     total cpu time spent up to now is       32.1 secs

     Computing kpt #:    83  of   300
     total cpu time spent up to now is       32.5 secs

     Computing kpt #:    84  of   300
     total cpu time spent up to now is       32.9 secs

     Computing kpt #:    85  of   300
     total cpu time spent up to now is       33.2 secs

     Computing kpt #:    86  of   300
     total cpu time spent up to now is       33.6 secs

     Computing kpt #:    87  of   300
     total cpu time spent up to now is       34.0 secs

     Computing kpt #:    88  of   300
     total cpu time spent up to now is       34.4 secs

     Computing kpt #:    89  of   300
     total cpu time spent up to now is       34.8 secs

     Computing kpt #:    90  of   300
     total cpu time spent up to now is       35.1 secs

     Computing kpt #:    91  of   300
     total cpu time spent up to now is       35.5 secs

     Computing kpt #:    92  of   300
     total cpu time spent up to now is       35.8 secs

     Computing kpt #:    93  of   300
     total cpu time spent up to now is       36.2 secs

     Computing kpt #:    94  of   300
     total cpu time spent up to now is       36.5 secs

     Computing kpt #:    95  of   300
     total cpu time spent up to now is       36.9 secs

     Computing kpt #:    96  of   300
     total cpu time spent up to now is       37.3 secs

     Computing kpt #:    97  of   300
     total cpu time spent up to now is       37.6 secs

     Computing kpt #:    98  of   300
     total cpu time spent up to now is       37.9 secs

     Computing kpt #:    99  of   300
     total cpu time spent up to now is       38.3 secs

     Computing kpt #:   100  of   300
     total cpu time spent up to now is       38.7 secs

     Computing kpt #:   101  of   300
     total cpu time spent up to now is       39.0 secs

     Computing kpt #:   102  of   300
     total cpu time spent up to now is       39.4 secs

     Computing kpt #:   103  of   300
     total cpu time spent up to now is       39.8 secs

     Computing kpt #:   104  of   300
     total cpu time spent up to now is       40.1 secs

     Computing kpt #:   105  of   300
     total cpu time spent up to now is       40.5 secs

     Computing kpt #:   106  of   300
     total cpu time spent up to now is       40.8 secs

     Computing kpt #:   107  of   300
     total cpu time spent up to now is       41.2 secs

     Computing kpt #:   108  of   300
     total cpu time spent up to now is       41.5 secs

     Computing kpt #:   109  of   300
     total cpu time spent up to now is       41.9 secs

     Computing kpt #:   110  of   300
     total cpu time spent up to now is       42.2 secs

     Computing kpt #:   111  of   300
     total cpu time spent up to now is       42.6 secs

     Computing kpt #:   112  of   300
     total cpu time spent up to now is       42.9 secs

     Computing kpt #:   113  of   300
     total cpu time spent up to now is       43.2 secs

     Computing kpt #:   114  of   300
     total cpu time spent up to now is       43.6 secs

     Computing kpt #:   115  of   300
     total cpu time spent up to now is       44.0 secs

     Computing kpt #:   116  of   300
     total cpu time spent up to now is       44.3 secs

     Computing kpt #:   117  of   300
     total cpu time spent up to now is       44.7 secs

     Computing kpt #:   118  of   300
     total cpu time spent up to now is       45.0 secs

     Computing kpt #:   119  of   300
     total cpu time spent up to now is       45.4 secs

     Computing kpt #:   120  of   300
     total cpu time spent up to now is       45.7 secs

     Computing kpt #:   121  of   300
     total cpu time spent up to now is       46.1 secs

     Computing kpt #:   122  of   300
     total cpu time spent up to now is       46.4 secs

     Computing kpt #:   123  of   300
     total cpu time spent up to now is       46.8 secs

     Computing kpt #:   124  of   300
     total cpu time spent up to now is       47.1 secs

     Computing kpt #:   125  of   300
     total cpu time spent up to now is       47.5 secs

     Computing kpt #:   126  of   300
     total cpu time spent up to now is       47.8 secs

     Computing kpt #:   127  of   300
     total cpu time spent up to now is       48.2 secs

     Computing kpt #:   128  of   300
     total cpu time spent up to now is       48.5 secs

     Computing kpt #:   129  of   300
     total cpu time spent up to now is       48.8 secs

     Computing kpt #:   130  of   300
     total cpu time spent up to now is       49.2 secs

     Computing kpt #:   131  of   300
     total cpu time spent up to now is       49.5 secs

     Computing kpt #:   132  of   300
     total cpu time spent up to now is       49.8 secs

     Computing kpt #:   133  of   300
     total cpu time spent up to now is       50.2 secs

     Computing kpt #:   134  of   300
     total cpu time spent up to now is       50.5 secs

     Computing kpt #:   135  of   300
     total cpu time spent up to now is       50.8 secs

     Computing kpt #:   136  of   300
     total cpu time spent up to now is       51.2 secs

     Computing kpt #:   137  of   300
     total cpu time spent up to now is       51.5 secs

     Computing kpt #:   138  of   300
     total cpu time spent up to now is       51.9 secs

     Computing kpt #:   139  of   300
     total cpu time spent up to now is       52.2 secs

     Computing kpt #:   140  of   300
     total cpu time spent up to now is       52.6 secs

     Computing kpt #:   141  of   300
     total cpu time spent up to now is       52.9 secs

     Computing kpt #:   142  of   300
     total cpu time spent up to now is       53.2 secs

     Computing kpt #:   143  of   300
     total cpu time spent up to now is       53.6 secs

     Computing kpt #:   144  of   300
     total cpu time spent up to now is       53.9 secs

     Computing kpt #:   145  of   300
     total cpu time spent up to now is       54.2 secs

     Computing kpt #:   146  of   300
     total cpu time spent up to now is       54.6 secs

     Computing kpt #:   147  of   300
     total cpu time spent up to now is       54.9 secs

     Computing kpt #:   148  of   300
     total cpu time spent up to now is       55.3 secs

     Computing kpt #:   149  of   300
     total cpu time spent up to now is       55.6 secs

     Computing kpt #:   150  of   300
     total cpu time spent up to now is       56.0 secs

     Computing kpt #:   151  of   300
     total cpu time spent up to now is       56.3 secs

     Computing kpt #:   152  of   300
     total cpu time spent up to now is       56.7 secs

     Computing kpt #:   153  of   300
     total cpu time spent up to now is       57.0 secs

     Computing kpt #:   154  of   300
     total cpu time spent up to now is       57.4 secs

     Computing kpt #:   155  of   300
     total cpu time spent up to now is       57.7 secs

     Computing kpt #:   156  of   300
     total cpu time spent up to now is       58.1 secs

     Computing kpt #:   157  of   300
     total cpu time spent up to now is       58.4 secs

     Computing kpt #:   158  of   300
     total cpu time spent up to now is       58.8 secs

     Computing kpt #:   159  of   300
     total cpu time spent up to now is       59.2 secs

     Computing kpt #:   160  of   300
     total cpu time spent up to now is       59.5 secs

     Computing kpt #:   161  of   300
     total cpu time spent up to now is       59.9 secs

     Computing kpt #:   162  of   300
     total cpu time spent up to now is       60.2 secs

     Computing kpt #:   163  of   300
     total cpu time spent up to now is       60.6 secs

     Computing kpt #:   164  of   300
     total cpu time spent up to now is       60.9 secs

     Computing kpt #:   165  of   300
     total cpu time spent up to now is       61.3 secs

     Computing kpt #:   166  of   300
     total cpu time spent up to now is       61.6 secs

     Computing kpt #:   167  of   300
     total cpu time spent up to now is       61.9 secs

     Computing kpt #:   168  of   300
     total cpu time spent up to now is       62.3 secs

     Computing kpt #:   169  of   300
     total cpu time spent up to now is       62.6 secs

     Computing kpt #:   170  of   300
     total cpu time spent up to now is       63.0 secs

     Computing kpt #:   171  of   300
     total cpu time spent up to now is       63.4 secs

     Computing kpt #:   172  of   300
     total cpu time spent up to now is       63.7 secs

     Computing kpt #:   173  of   300
     total cpu time spent up to now is       64.0 secs

     Computing kpt #:   174  of   300
     total cpu time spent up to now is       64.4 secs

     Computing kpt #:   175  of   300
     total cpu time spent up to now is       64.7 secs

     Computing kpt #:   176  of   300
     total cpu time spent up to now is       65.1 secs

     Computing kpt #:   177  of   300
     total cpu time spent up to now is       65.4 secs

     Computing kpt #:   178  of   300
     total cpu time spent up to now is       65.8 secs

     Computing kpt #:   179  of   300
     total cpu time spent up to now is       66.2 secs

     Computing kpt #:   180  of   300
     total cpu time spent up to now is       66.5 secs

     Computing kpt #:   181  of   300
     total cpu time spent up to now is       66.9 secs

     Computing kpt #:   182  of   300
     total cpu time spent up to now is       67.3 secs

     Computing kpt #:   183  of   300
     total cpu time spent up to now is       67.6 secs

     Computing kpt #:   184  of   300
     total cpu time spent up to now is       68.0 secs

     Computing kpt #:   185  of   300
     total cpu time spent up to now is       68.3 secs

     Computing kpt #:   186  of   300
     total cpu time spent up to now is       68.7 secs

     Computing kpt #:   187  of   300
     total cpu time spent up to now is       69.1 secs

     Computing kpt #:   188  of   300
     total cpu time spent up to now is       69.5 secs

     Computing kpt #:   189  of   300
     total cpu time spent up to now is       69.8 secs

     Computing kpt #:   190  of   300
     total cpu time spent up to now is       70.2 secs

     Computing kpt #:   191  of   300
     total cpu time spent up to now is       70.5 secs

     Computing kpt #:   192  of   300
     total cpu time spent up to now is       70.9 secs

     Computing kpt #:   193  of   300
     total cpu time spent up to now is       71.3 secs

     Computing kpt #:   194  of   300
     total cpu time spent up to now is       71.6 secs

     Computing kpt #:   195  of   300
     total cpu time spent up to now is       72.0 secs

     Computing kpt #:   196  of   300
     total cpu time spent up to now is       72.3 secs

     Computing kpt #:   197  of   300
     total cpu time spent up to now is       72.7 secs

     Computing kpt #:   198  of   300
     total cpu time spent up to now is       73.1 secs

     Computing kpt #:   199  of   300
     total cpu time spent up to now is       73.5 secs

     Computing kpt #:   200  of   300
     total cpu time spent up to now is       73.8 secs

     Computing kpt #:   201  of   300
     total cpu time spent up to now is       74.2 secs

     Computing kpt #:   202  of   300
     total cpu time spent up to now is       74.5 secs

     Computing kpt #:   203  of   300
     total cpu time spent up to now is       74.9 secs

     Computing kpt #:   204  of   300
     total cpu time spent up to now is       75.2 secs

     Computing kpt #:   205  of   300
     total cpu time spent up to now is       75.6 secs

     Computing kpt #:   206  of   300
     total cpu time spent up to now is       76.0 secs

     Computing kpt #:   207  of   300
     total cpu time spent up to now is       76.4 secs

     Computing kpt #:   208  of   300
     total cpu time spent up to now is       76.8 secs

     Computing kpt #:   209  of   300
     total cpu time spent up to now is       77.2 secs

     Computing kpt #:   210  of   300
     total cpu time spent up to now is       77.5 secs

     Computing kpt #:   211  of   300
     total cpu time spent up to now is       77.9 secs

     Computing kpt #:   212  of   300
     total cpu time spent up to now is       78.2 secs

     Computing kpt #:   213  of   300
     total cpu time spent up to now is       78.6 secs

     Computing kpt #:   214  of   300
     total cpu time spent up to now is       78.9 secs

     Computing kpt #:   215  of   300
     total cpu time spent up to now is       79.3 secs

     Computing kpt #:   216  of   300
     total cpu time spent up to now is       79.7 secs

     Computing kpt #:   217  of   300
     total cpu time spent up to now is       80.1 secs

     Computing kpt #:   218  of   300
     total cpu time spent up to now is       80.5 secs

     Computing kpt #:   219  of   300
     total cpu time spent up to now is       80.8 secs

     Computing kpt #:   220  of   300
     total cpu time spent up to now is       81.2 secs

     Computing kpt #:   221  of   300
     total cpu time spent up to now is       81.5 secs

     Computing kpt #:   222  of   300
     total cpu time spent up to now is       81.9 secs

     Computing kpt #:   223  of   300
     total cpu time spent up to now is       82.2 secs

     Computing kpt #:   224  of   300
     total cpu time spent up to now is       82.6 secs

     Computing kpt #:   225  of   300
     total cpu time spent up to now is       82.9 secs

     Computing kpt #:   226  of   300
     total cpu time spent up to now is       83.3 secs

     Computing kpt #:   227  of   300
     total cpu time spent up to now is       83.7 secs

     Computing kpt #:   228  of   300
     total cpu time spent up to now is       84.1 secs

     Computing kpt #:   229  of   300
     total cpu time spent up to now is       84.5 secs

     Computing kpt #:   230  of   300
     total cpu time spent up to now is       84.9 secs

     Computing kpt #:   231  of   300
     total cpu time spent up to now is       85.3 secs

     Computing kpt #:   232  of   300
     total cpu time spent up to now is       85.7 secs

     Computing kpt #:   233  of   300
     total cpu time spent up to now is       86.1 secs

     Computing kpt #:   234  of   300
     total cpu time spent up to now is       86.4 secs

     Computing kpt #:   235  of   300
     total cpu time spent up to now is       86.7 secs

     Computing kpt #:   236  of   300
     total cpu time spent up to now is       87.1 secs

     Computing kpt #:   237  of   300
     total cpu time spent up to now is       87.5 secs

     Computing kpt #:   238  of   300
     total cpu time spent up to now is       87.8 secs

     Computing kpt #:   239  of   300
     total cpu time spent up to now is       88.2 secs

     Computing kpt #:   240  of   300
     total cpu time spent up to now is       88.6 secs

     Computing kpt #:   241  of   300
     total cpu time spent up to now is       89.0 secs

     Computing kpt #:   242  of   300
     total cpu time spent up to now is       89.3 secs

     Computing kpt #:   243  of   300
     total cpu time spent up to now is       89.7 secs

     Computing kpt #:   244  of   300
     total cpu time spent up to now is       90.2 secs

     Computing kpt #:   245  of   300
     total cpu time spent up to now is       90.6 secs

     Computing kpt #:   246  of   300
     total cpu time spent up to now is       90.9 secs

     Computing kpt #:   247  of   300
     total cpu time spent up to now is       91.3 secs

     Computing kpt #:   248  of   300
     total cpu time spent up to now is       91.7 secs

     Computing kpt #:   249  of   300
     total cpu time spent up to now is       92.0 secs

     Computing kpt #:   250  of   300
     total cpu time spent up to now is       92.4 secs

     Computing kpt #:   251  of   300
     total cpu time spent up to now is       92.8 secs

     Computing kpt #:   252  of   300
     total cpu time spent up to now is       93.1 secs

     Computing kpt #:   253  of   300
[...]
    22.1559  22.2855  22.3817  23.3731  23.4319  23.8361  23.9128  25.2105
    25.4342  25.8606  26.3523  27.4379  28.1124  28.2864  29.0929  29.1231
    29.9459  30.0424

          k = 0.9177 1.1553 0.0000 (  7242 PWs)   bands (ev):

   -18.6271 -13.1709  -8.9513  -5.1887   0.3408   5.9746   8.2852   8.9393
     8.9722   9.7683  10.0247  10.0801  10.5742  10.9901  11.1547  11.3936
    12.1658  13.0597  13.1197  13.6259  14.3490  15.5927  15.9395  16.5511
    17.0083  17.0188  18.6029  19.2030  19.9303  20.5235  20.8883  21.7885
    21.8538  22.1222  22.2381  23.3350  23.3786  23.8397  24.1983  25.2802
    25.5047  25.9339  25.9582  26.7027  28.1648  28.2212  29.0728  29.3409
    29.8684  29.9954

          k = 0.9177 1.2034 0.0000 (  7246 PWs)   bands (ev):

   -18.7297 -13.0136  -8.9136  -5.3500   0.5451   5.8706   7.5861   8.2193
     8.7633   9.4521   9.6943  10.1482  10.5595  11.4362  11.5041  12.1315
    12.1828  12.6593  13.3558  14.3746  14.5539  15.2552  15.7506  16.3715
    17.3033  17.6037  18.7037  18.7147  20.1854  20.3410  20.9511  21.9849
    22.1591  22.2877  22.3991  23.3750  23.4345  23.8360  23.9052  25.2018
    25.4389  25.8621  26.3689  27.4640  28.1091  28.2897  29.0862  29.1255
    29.9491  30.0438

          k = 0.9177 1.2515 0.0000 (  7256 PWs)   bands (ev):

   -18.9996 -12.5837  -8.8030  -5.7619   1.0777   5.4696   6.9613   7.2001
     7.6305   8.4227   8.8961  10.2557  10.6860  11.3516  11.7705  12.9085
    13.0411  13.6662  13.7480  14.2839  14.8576  15.3854  16.3374  16.3518
    17.3925  17.7036  18.7738  18.9861  20.3841  20.6970  21.0816  22.2007
    22.3257  22.4416  22.7549  23.5497  23.6006  24.0034  24.0468  25.1676
    25.6478  26.0226  26.9349  28.0119  28.3641  28.5710  29.0928  29.2281
    29.5972  30.1357

          k = 0.9177 1.2996 0.0000 (  7250 PWs)   bands (ev):

   -19.3691 -11.9543  -8.6218  -6.3054   1.7982   4.7698   6.2431   6.4536
     6.8208   7.4442   7.9299   9.4148   9.9970  11.7589  11.8103  13.2669
    13.3411  14.3974  14.7623  14.7720  15.6539  15.7078  16.4755  16.7896
    17.6272  18.0064  18.9310  19.8962  20.7939  21.2235  21.4043  22.3601
    22.4206  22.6326  22.7482  23.8391  23.8792  24.6532  24.8141  25.8545
    25.9074  26.3542  26.8091  28.0285  28.4412  28.7692  29.6449  29.6460
    30.4232  30.4474

          k = 0.9177 1.3477 0.0000 (  7257 PWs)   bands (ev):

   -19.7774 -11.1956  -8.3743  -6.8893   2.5650   3.9888   5.4039   5.5806
     6.5038   6.5724   7.2139   8.5916   9.1233  11.2868  11.4818  12.8265
    13.6675  14.4546  15.5715  15.7452  16.3002  16.5663  16.9920  17.5897
    18.0711  19.1964  20.0161  20.0866  21.1466  21.3579  21.7515  22.9693
    23.0488  23.1790  23.3228  24.2020  24.2675  25.0848  25.3343  26.2280
    26.5189  26.9802  27.1523  27.6854  28.9517  29.1793  30.0879  30.2921
    30.8527  30.8989

          k = 0.9177 1.3958 0.0000 (  7255 PWs)   bands (ev):

   -20.1836 -10.3627  -8.0670  -7.4593   3.1833   3.2457   4.7623   4.7649
     5.8518   5.9295   6.9653   7.8647   8.3419  10.6540  10.7790  12.0960
    13.7759  13.8939  15.6923  15.7592  17.5031  18.0306  18.2011  18.9051
    19.5358  19.5916  20.4690  20.7811  21.7240  22.1766  22.3542  23.4761
    23.5904  24.1349  24.2253  24.7655  24.8358  25.5743  25.5765  26.3190
    26.7506  27.2243  28.1520  29.0558  29.5469  29.7075  30.4986  30.6444
    31.2131  31.4045

          k = 0.9177 1.4440 0.0000 (  7254 PWs)   bands (ev):

   -20.5625  -9.5014  -7.9844  -7.7098   2.5788   3.2769   4.0477   4.4617
     5.2772   5.4397   6.8874   7.2822   7.6974  10.0369  10.0711  11.2588
    13.1194  13.5154  15.2888  16.1799  18.6388  18.8747  19.8357  19.9719
    20.1381  20.8303  21.4043  22.0315  22.4122  23.3610  23.5091  24.0816
    24.1867  24.5761  24.7351  25.3064  25.3700  25.7526  26.7058  27.1311
    27.4199  27.8240  28.7569  30.0585  30.2633  30.7188  31.0649  31.3402
    31.5924  31.6509

          k = 0.9177 1.4921 0.0000 (  7266 PWs)   bands (ev):

   -20.8986  -8.6550  -8.4466  -7.3170   2.0020   2.9146   3.4413   4.1402
     4.6941   5.4791   6.6963   6.9408   7.3021   9.3467   9.5917  10.4466
    12.3464  13.1312  14.7541  16.7276  18.6909  19.1275  20.7113  21.3142
    22.0964  22.4021  22.6413  23.0924  23.4470  24.0436  24.4904  24.6959
    24.9213  24.9572  25.9493  25.9558  26.0805  26.4166  27.5141  28.3712
    28.4327  29.0312  29.2444  30.1256  30.8113  31.0326  31.8146  31.9095
    32.3921  32.7052

          k = 0.9177 1.5402 0.0000 (  7269 PWs)   bands (ev):

   -21.1824  -8.8348  -7.8681  -6.9105   1.5216   2.5018   2.9445   3.7385
     4.2074   5.4626   6.3262   6.9530   7.1745   8.7617   9.2503   9.7031
    11.6543  12.7755  14.2713  16.8804  18.7050  19.3415  21.6991  22.0874
    23.0941  23.3891  24.1467  24.3612  24.5273  24.9411  25.6590  25.7015
    25.8417  25.8867  26.8394  27.0648  27.2786  28.0165  28.0514  28.9197
    29.2718  30.0013  30.3515  30.8936  31.0132  31.8351  32.2000  32.7298
    33.0461  33.5722

          k = 0.9593 0.5539 0.0000 (  7267 PWs)   bands (ev):

   -21.7672  -9.6307  -5.8899  -5.8199   0.5304   1.5912   1.9521   2.8269
     3.2185   4.8185   5.3702   7.1042   7.2708   7.2802   8.0516   9.1609
    10.2123  12.1130  13.2199  16.4127  17.7117  21.0248  21.3997  23.2284
    25.1014  25.2467  26.3143  28.4801  28.9618  29.3359  29.8170  30.6019
    30.8104  31.2934  31.3000  31.5924  32.2664  32.5202  32.5968  32.6793
    32.6884  32.7014  33.1594  33.5597  33.8270  33.8285  33.9327  33.9532
    34.3307  34.8776

          k = 0.9593 0.6501 0.0000 (  7279 PWs)   bands (ev):

   -21.6990  -9.5382  -6.1647  -5.9593   0.6477   1.6983   2.0660   2.9345
     3.3333   4.9126   5.4851   7.0787   7.2853   7.5463   8.2120   9.1018
    10.3803  12.1759  13.3471  16.4849  17.8341  21.1902  21.3724  23.3213
    24.0071  24.7026  26.3712  28.3383  28.5111  28.8959  29.5604  29.8046
    30.0078  30.0200  30.0865  30.2042  31.1670  31.2361  31.2941  31.4497
    32.1327  32.4129  32.5804  33.1653  33.4181  33.6739  33.7884  33.9570
    34.0045  34.1211

          k = 0.9593 0.6982 0.0000 (  7259 PWs)   bands (ev):

   -21.5659  -9.3573  -6.6665  -6.2139   0.8740   1.9073   2.2896   3.1442
     3.5571   5.0883   5.7043   7.0439   7.2459   8.0266   8.5457   9.0432
    10.6995  12.3145  13.5906  16.6210  18.0672  21.1114  21.4686  22.9112
    23.5047  23.9242  26.3406  26.5310  27.5487  27.6405  27.7498  28.4874
    28.8933  28.8987  28.9952  29.2925  29.7455  30.2213  30.3554  30.8044
    31.0325  31.3337  31.5331  32.4424  32.5697  32.9025  32.9563  33.6633
    33.7415  34.0311

          k = 0.9593 0.7463 0.0000 (  7276 PWs)   bands (ev):

   -21.3689  -9.0892  -7.3482  -6.5466   1.2054   2.2149   2.6238   3.4525
     3.8887   5.3152   6.0107   7.0097   7.0962   8.6263   9.0934   9.0992
    11.1524  12.5445  13.9407  16.7971  18.3996  20.2756  21.6965  22.4454
    23.1496  23.7490  24.4327  25.2848  25.3649  26.3797  26.5083  26.9293
    27.0044  27.9535  27.9855  28.7717  28.8631  29.0067  29.2451  29.7767
    30.0396  30.5404  31.4740  31.5722  31.6585  31.8557  32.0113  32.0992
    32.5933  33.1832

          k = 0.9593 0.7944 0.0000 (  7255 PWs)   bands (ev):

   -21.1111  -8.7373  -8.1526  -6.9184   1.6374   2.6088   3.0680   3.8441
     4.3242   5.4861   6.3415   6.9121   7.0484   9.2393   9.3268   9.9136
    11.7131  12.8683  14.3819  16.9208  18.8096  19.2956  21.2321  21.9294
    22.6935  22.8883  23.2970  23.3928  24.1928  24.5863  24.6207  25.9666
    26.2543  26.8437  26.9628  27.1217  27.6118  28.3635  28.3782  29.4812
    29.4983  29.9750  30.0433  30.4989  30.8153  30.8727  31.0822  31.2656
    32.2359  32.3008

          k = 0.9593 0.8425 0.0000 (  7251 PWs)   bands (ev):

   -20.7972  -9.0271  -8.3072  -7.2962   2.1662   3.0436   3.6219   4.2573
     4.8573   5.4293   6.5323   7.0094   7.3415   9.7329   9.8783  10.9036
    12.3510  13.2684  14.8902  16.7401  18.7377  19.1353  19.9173  20.8314
    20.9304  21.4448  22.1340  22.3121  23.3601  23.4155  24.4895  24.8133
    25.0065  25.5989  26.0757  26.3406  26.8740  27.5764  27.6200  27.8436
    28.6794  28.9849  29.4912  30.0060  30.1332  30.2731  30.8281  31.0311
    31.4917  31.7060

          k = 0.9593 0.8907 0.0000 (  7258 PWs)   bands (ev):

   -20.4349  -9.9254  -7.8077  -7.6548   2.7864   3.2991   4.2843   4.5250
     5.4665   5.5213   6.5956   7.4666   7.9101  10.2739  10.5679  11.9416
    13.0354  13.6863  15.4112  16.1843  18.0273  18.5288  18.9513  19.3066
    19.9216  20.2014  20.4635  21.0774  22.4538  22.5213  23.6034  24.1063
    24.8329  25.3328  25.5156  25.7007  25.8540  26.2704  26.7176  26.9581
    28.0056  28.2954  29.1597  29.2936  29.5055  29.5567  30.0031  30.2871
    30.7496  30.8910

          k = 0.9593 0.9388 0.0000 (  7263 PWs)   bands (ev):

   -20.0364 -10.8059  -7.9754  -7.2530   2.9325   3.4865   4.9671   5.0518
     6.0433   6.0994   6.7751   8.1288   8.6360  10.9122  11.2886  12.7876
    13.7749  13.9323  15.6643  15.7177  16.7938  17.2371  17.2547  18.2990
    18.5977  19.5404  20.1402  20.4701  21.1016  21.3354  23.2361  23.4189
    23.8686  24.8697  25.0011  25.2438  25.2560  26.0932  26.3160  26.5234
    27.1821  27.6457  28.2164  28.3712  28.8611  28.9436  29.1284  29.8086
    30.3158  30.4759

          k = 0.9593 0.9869 0.0000 (  7262 PWs)   bands (ev):

   -19.6217 -11.6274  -8.2446  -6.6668   2.1948   4.2358   5.7191   5.8976
     6.3690   6.9047   7.3867   8.9198   9.4734  11.5840  11.8514  13.0522
    13.6637  14.5948  15.1445  15.2543  15.6094  15.9867  16.5856  17.1399
    17.5555  18.7048  19.2965  19.8778  20.6957  21.4098  22.3088  22.3248
    23.1846  24.4632  24.5961  24.8767  24.9938  25.6734  25.9225  26.3325
    26.5263  27.1671  27.6825  27.7669  28.4073  28.4925  28.6595  29.2945
    29.8516  30.0210

          k = 0.9593 1.0350 0.0000 (  7266 PWs)   bands (ev):

   -19.2235 -12.3420  -8.4532  -6.0908   1.4159   4.9414   6.4856   6.6302
     7.0120   7.8409   8.2945   9.7951  10.3694  11.4977  11.9920  13.1246
    13.3643  13.6216  14.1284  14.5548  15.3039  15.5759  16.1651  16.6118
    17.3702  17.8673  18.5966  19.3978  20.3467  20.7501  21.9527  22.3428
    22.9306  23.8348  24.1989  24.3596  24.3735  25.3884  25.4051  25.6909
    26.6356  26.8733  27.3598  27.8810  28.1450  28.2038  28.5558  28.7047
    29.4670  29.4889

          k = 0.9593 1.0831 0.0000 (  7250 PWs)   bands (ev):

   -18.8937 -12.8876  -8.5951  -5.5978   0.7604   5.4045   7.0432   7.6440
     8.0846   8.8733   9.3250  10.2718  10.5885  11.4792  11.5626  12.0236
    12.5853  13.1216  13.5089  14.3402  14.6229  15.2539  16.0969  16.4724
    17.1823  17.8197  18.6632  18.7778  19.9715  20.0376  21.9292  22.4974
    22.7440  23.3500  23.7136  24.0787  24.1113  25.1441  25.1641  25.4654
    26.3717  26.6103  27.2284  27.6427  27.9296  27.9603  28.1811  28.4805
    29.2244  29.2615

          k = 0.9593 1.1312 0.0000 (  7256 PWs)   bands (ev):

   -18.7014 -13.1886  -8.6666  -5.3002   0.3751   5.5728   7.8946   8.6788
     9.0856   9.3263   9.7792  10.2824  10.5199  10.6213  11.2454  11.7750
    12.0150  12.6802  13.1478  13.8718  14.4673  15.4329  15.8648  16.6413
    17.0663  17.3865  18.5147  19.0063  19.7416  20.2986  21.3888  21.8434
    22.6013  23.7004  23.8366  24.0289  24.0333  24.9515  25.2094  25.5120
    25.7439  26.4728  26.9615  27.1651  27.6806  27.8385  27.9384  28.7042
    29.1533  29.2612

          k = 0.9593 1.1793 0.0000 (  7256 PWs)   bands (ev):

   -18.7039 -13.1848  -8.6657  -5.3041   0.3801   5.5711   7.8735   8.6562
     9.1003   9.3045   9.7746  10.2824  10.5065  10.6399  11.2667  11.8036
    12.0042  12.6570  13.1619  13.8957  14.4661  15.4195  15.8653  16.6457
    17.0668  17.3970  18.5173  18.9972  19.7457  20.2885  21.3992  21.8584
    22.6025  23.6932  23.8346  24.0293  24.0304  24.9567  25.2084  25.5064
    25.7544  26.4746  26.9774  27.1661  27.6828  27.8396  27.9400  28.7006
    29.1547  29.2571

          k = 0.9593 1.2274 0.0000 (  7252 PWs)   bands (ev):

   -18.9003 -12.8770  -8.5925  -5.6079   0.7735   5.3973   7.0257   7.6188
     8.0572   8.8478   9.3003  10.2945  10.5772  11.4924  11.5416  12.0576
    12.6101  13.1509  13.5103  14.3295  14.6352  15.2690  16.1083  16.4617
    17.1850  17.8223  18.6642  18.7843  19.9786  20.0422  21.9384  22.5046
    22.7511  23.3486  23.7146  24.0828  24.1151  25.1449  25.1692  25.4686
    26.3869  26.6152  27.2297  27.6514  27.9329  27.9689  28.1980  28.4775
    29.2276  29.2648

          k = 0.9593 1.2756 0.0000 (  7264 PWs)   bands (ev):

   -19.2326 -12.3266  -8.4490  -6.1040   1.4338   4.9265   6.4757   6.6070
     6.9887   7.8171   8.2708   9.7736  10.3490  11.5159  11.9926  13.1332
    13.3635  13.6455  14.1567  14.5787  15.3218  15.5671  16.1678  16.6213
    17.3769  17.8768  18.5991  19.4144  20.3570  20.7756  21.9509  22.3313
    22.9349  23.8540  24.2126  24.3702  24.3847  25.4002  25.4116  25.6989
    26.6317  26.8809  27.3671  27.8839  28.1522  28.2081  28.5484  28.7177
    29.4775  29.4987

          k = 0.9593 1.3237 0.0000 (  7266 PWs)   bands (ev):

   -19.6316 -11.6088  -8.2388  -6.6810   2.2138   4.2177   5.6989   5.8774
     6.3620   6.8837   7.3674   8.8996   9.4522  11.5686  11.8452  13.0501
    13.6762  14.5783  15.1743  15.2728  15.6255  16.0064  16.5999  17.1617
    17.5643  18.7310  19.3255  19.8826  20.7041  21.4024  22.3323  22.3462
    23.1929  24.4744  24.6049  24.8861  25.0081  25.6796  25.9330  26.3546
    26.5319  27.1709  27.6790  27.7787  28.4159  28.5020  28.6687  29.3078
    29.8615  30.0353

          k = 0.9593 1.3718 0.0000 (  7261 PWs)   bands (ev):

   -20.0463 -10.7853  -7.9682  -7.2668   2.9477   3.4689   4.9520   5.0322
     6.0321   6.0822   6.7665   8.1112   8.6172  10.8961  11.2716  12.7732
    13.7558  13.9314  15.6734  15.7178  16.8204  17.2692  17.2909  18.3286
    18.6340  19.5473  20.1582  20.4792  21.1155  21.3587  23.2479  23.4455
    23.8963  24.8769  25.0125  25.2492  25.2664  26.1065  26.3177  26.5205
    27.2036  27.6629  28.2438  28.3891  28.8743  28.9558  29.1420  29.8204
    30.3283  30.4819

          k = 0.9593 1.4199 0.0000 (  7256 PWs)   bands (ev):

   -20.4441  -9.9038  -7.8204  -7.6466   2.7705   3.2992   4.2672   4.5192
     5.4515   5.5124   6.5939   7.4527   7.8943  10.2596  10.5508  11.9175
    13.0185  13.6771  15.3995  16.1990  18.0613  18.5419  18.9960  19.3355
    19.9234  20.2304  20.4926  21.1028  22.4890  22.5518  23.6133  24.1130
    24.8473  25.3503  25.5153  25.7114  25.8773  26.2942  26.7350  26.9726
    28.0226  28.3108  29.1754  29.3118  29.5197  29.5747  30.0368  30.2991
    30.7630  30.9064

          k = 0.9593 1.4680 0.0000 (  7249 PWs)   bands (ev):

   -20.8053  -9.0057  -8.3184  -7.2873   2.1524   3.0337   3.6073   4.2484
     4.8435   5.4322   6.5300   7.0022   7.3306   9.7214   9.8624  10.8788
    12.3350  13.2582  14.8775  16.7499  18.7440  19.1373  19.9421  20.8670
    20.9783  21.4761  22.1741  22.3432  23.3712  23.4284  24.5105  24.8457
    25.0109  25.6149  26.0938  26.3579  26.8951  27.5958  27.6449  27.8839
    28.6976  29.0030  29.4946  30.0234  30.1498  30.2905  30.8402  31.0207
    31.5117  31.7272

          k = 0.9593 1.5161 0.0000 (  7251 PWs)   bands (ev):

   -21.1179  -8.7467  -8.1322  -6.9092   1.6259   2.5985   3.0561   3.8340
     4.3126   5.4843   6.3344   6.9146   7.0453   9.2245   9.3190   9.8915
    11.6987  12.8595  14.3704  16.9201  18.7993  19.3160  21.2584  21.9482
    22.7061  22.9264  23.3258  23.4313  24.1933  24.6290  24.6550  25.9884
    26.2819  26.8864  26.9906  27.1429  27.6291  28.3833  28.3902  29.5068
    29.5103  30.0102  30.0787  30.4922  30.8341  30.8914  31.1018  31.2755
    32.2474  32.3208

          k = 0.9593 1.5642 0.0000 (  7270 PWs)   bands (ev):

   -21.3744  -9.0966  -7.3301  -6.5381   1.1962   2.2064   2.6145   3.4440
     3.8795   5.3097   6.0026   7.0102   7.1011   8.6115   9.0828   9.0901
    11.1402  12.5378  13.9312  16.7929  18.3906  20.3002  21.6949  22.4523
    23.1657  23.7449  24.4710  25.3381  25.4158  26.4097  26.5506  26.9605
    27.0281  27.9709  28.0082  28.7889  28.9126  29.0449  29.2680  29.7862
    30.0342  30.5609  31.4865  31.5983  31.6781  31.8843  32.0472  32.1378
    32.5978  33.2057

          k = 0.9593 1.6123 0.0000 (  7265 PWs)   bands (ev):

   -21.5699  -9.3627  -6.6521  -6.2068   0.8674   1.9011   2.2830   3.1380
     3.5505   5.0833   5.6979   7.0448   7.2480   8.0131   8.5354   9.0438
    10.6902  12.3101  13.5834  16.6171  18.0604  21.1240  21.4614  22.9306
    23.4992  23.9439  26.3901  26.5283  27.5980  27.6924  27.7824  28.4987
    28.9414  28.9444  29.0262  29.3130  29.7413  30.2460  30.3759  30.8087
    31.0803  31.3567  31.5619  32.4615  32.5930  32.9275  32.9780  33.6521
    33.7459  34.0627

     Writing all to output data dir ./bn.save/

     init_run     :      0.04s CPU      0.04s WALL (       1 calls)
     electrons    :    109.87s CPU    111.73s WALL (       1 calls)

     Called by init_run:
     wfcinit      :      0.00s CPU      0.00s WALL (       1 calls)
     wfcinit:atom :      0.01s CPU      0.01s WALL (     300 calls)
     wfcinit:wfcr :      3.10s CPU      3.28s WALL (     300 calls)
     potinit      :      0.00s CPU      0.01s WALL (       1 calls)
     hinit0       :      0.01s CPU      0.01s WALL (       1 calls)

     Called by electrons:
     c_bands      :    109.86s CPU    111.72s WALL (       1 calls)
     v_of_rho     :      0.00s CPU      0.00s WALL (       1 calls)
     v_h          :      0.00s CPU      0.00s WALL (       1 calls)
     v_xc         :      0.00s CPU      0.00s WALL (       1 calls)

     Called by c_bands:
     init_us_2    :      0.01s CPU      0.01s WALL (     300 calls)
     init_us_2:cp :      0.01s CPU      0.01s WALL (     300 calls)
     cegterg      :    106.49s CPU    108.00s WALL (     341 calls)

     Called by sum_band:

     Called by *egterg:
     cdiaghg      :     60.15s CPU     60.45s WALL (    6169 calls)
     cegterg:over :      9.65s CPU     10.13s WALL (    5869 calls)
     cegterg:upda :      3.35s CPU      3.37s WALL (    5869 calls)
     cegterg:last :      2.09s CPU      2.09s WALL (    1267 calls)
     h_psi        :     30.14s CPU     30.99s WALL (    6510 calls)
     g_psi        :      0.07s CPU      0.07s WALL (    5869 calls)

     Called by h_psi:
     h_psi:calbec :      0.87s CPU      0.90s WALL (    6510 calls)
     vloc_psi     :     28.88s CPU     29.68s WALL (    6510 calls)
     add_vuspsi   :      0.34s CPU      0.35s WALL (    6510 calls)

     General routines
     calbec       :      0.86s CPU      0.89s WALL (    6510 calls)
     fft          :      0.00s CPU      0.00s WALL (       3 calls)
     fftw         :     27.98s CPU     28.77s WALL (  406344 calls)
     davcio       :      0.05s CPU      0.05s WALL (     600 calls)

     Parallel routines

     PWSCF        :   2m 2.86s CPU   2m 7.55s WALL


   This run was terminated on:  14:50:13  23Jan2025            

=------------------------------------------------------------------------------=
   JOB DONE.
=------------------------------------------------------------------------------=
Note: The following floating-point exceptions are signalling: IEEE_DENORMAL
Note: The following floating-point exceptions are signalling: IEEE_DENORMAL
Note: The following floating-point exceptions are signalling: IEEE_DENORMAL
Note: The following floating-point exceptions are signalling: IEEE_DENORMAL
Note: The following floating-point exceptions are signalling: IEEE_DENORMAL
Note: The following floating-point exceptions are signalling: IEEE_DENORMAL
Note: The following floating-point exceptions are signalling: IEEE_DENORMAL
Note: The following floating-point exceptions are signalling: IEEE_DENORMAL
Note: The following floating-point exceptions are signalling: IEEE_DENORMAL
Note: The following floating-point exceptions are signalling: IEEE_DENORMAL
Note: The following floating-point exceptions are signalling: IEEE_DENORMAL
