
     Program PWSCF v.7.2 starts on 23Jan2025 at 14:16:38 

     This program is part of the open-source Quantum ESPRESSO suite
     for quantum simulation of materials; please cite
         "P. Giannozzi et al., J. Phys.:Condens. Matter 21 395502 (2009);
         "P. Giannozzi et al., J. Phys.:Condens. Matter 29 465901 (2017);
         "P. Giannozzi et al., J. Chem. Phys. 152 154105 (2020);
          URL http://www.quantum-espresso.org", 
     in publications or presentations arising from this work. More details at
     http://www.quantum-espresso.org/quote

     Parallel version (MPI), running on   128 processors

     MPI processes distributed on     4 nodes
     485805 MiB available memory on the printing compute node when the environment starts

     Reading input from scf.in

     Current dimensions of program PWSCF are:
     Max number of different atomic species (ntypx) = 10
     Max number of k-points (npk) =  40000
     Max angular momentum in pseudopotentials (lmaxx) =  4
     Message from routine setup:
     using ibrav=0 with symmetry is DISCOURAGED, use correct ibrav instead

     K-points division:     npool     =       2
     R & G space division:  proc/nbgrp/npool/nimage =      64
     Subspace diagonalization in iterative solution of the eigenvalue problem:
     a serial algorithm will be used


     Parallelization info
     --------------------
     sticks:   dense  smooth     PW     G-vecs:    dense   smooth      PW
     Min           6       6      2                  878      878     166
     Max           7       7      3                  927      927     191
     Sum         433     433    151                58173    58173   11113

     Using Slab Decomposition



     bravais-lattice index     =            0
     lattice parameter (alat)  =       4.7319  a.u.
     unit-cell volume          =     732.8682 (a.u.)^3
     number of atoms/cell      =            2
     number of atomic types    =            2
     number of electrons       =         8.00
     number of Kohn-Sham states=            4
     kinetic-energy cutoff     =      70.0000  Ry
     charge density cutoff     =     280.0000  Ry
     scf convergence threshold =      1.0E-10
     mixing beta               =       0.7000
     number of iterations used =            8  plain     mixing
     Exchange-correlation= PZ
                           (   1   1   0   0   0   0   0)

     celldm(1)=   4.731874  celldm(2)=   0.000000  celldm(3)=   0.000000
     celldm(4)=   0.000000  celldm(5)=   0.000000  celldm(6)=   0.000000

     crystal axes: (cart. coord. in units of alat)
               a(1) = (   1.000000   0.000000   0.000000 )  
               a(2) = (  -0.500000   0.866025   0.000000 )  
               a(3) = (   0.000000   0.000000   7.987220 )  

     reciprocal axes: (cart. coord. in units 2 pi/alat)
               b(1) = (  1.000000  0.577350 -0.000000 )  
               b(2) = (  0.000000  1.154701  0.000000 )  
               b(3) = (  0.000000 -0.000000  0.125200 )  


     PseudoPot. # 1 for B  read from file:
     ./B_LDA.upf
     MD5 check sum: 65253fcade13fd046065f55d2370c246
     Pseudo is Norm-conserving, Zval =  3.0
     Generated using ONCVPSP code by D. R. Hamann
     Using radial grid of 1498 points,  4 beta functions with: 
                l(1) =   0
                l(2) =   0
                l(3) =   1
                l(4) =   1

     PseudoPot. # 2 for N  read from file:
     ./N_LDA.upf
     MD5 check sum: 7658f7615a25ff704775af13f841a702
     Pseudo is Norm-conserving, Zval =  5.0
     Generated using ONCVPSP code by D. R. Hamann
     Using radial grid of 1058 points,  4 beta functions with: 
                l(1) =   0
                l(2) =   0
                l(3) =   1
                l(4) =   1

     atomic species   valence    mass     pseudopotential
        B              3.00    11.00000     B ( 1.00)
        N              5.00    14.00000     N ( 1.00)

     12 Sym. Ops. (no inversion) found


                                    s                        frac. trans.

      isym =  1     identity                                     

 cryst.   s( 1) = (     1          0          0      )
                  (     0          1          0      )
                  (     0          0          1      )

 cart.    s( 1) = (  1.0000000  0.0000000  0.0000000 )
                  (  0.0000000  1.0000000  0.0000000 )
                  (  0.0000000  0.0000000  1.0000000 )


      isym =  2     180 deg rotation - cart. axis [0,1,0]        

 cryst.   s( 2) = (    -1          0          0      )
                  (     1          1          0      )
                  (     0          0         -1      )

 cart.    s( 2) = ( -1.0000000  0.0000000  0.0000000 )
                  (  0.0000000  1.0000000  0.0000000 )
                  (  0.0000000  0.0000000 -1.0000000 )


      isym =  3     120 deg rotation - cryst. axis [0,0,1]       

 cryst.   s( 3) = (     0          1          0      )
                  (    -1         -1          0      )
                  (     0          0          1      )

 cart.    s( 3) = ( -0.5000000 -0.8660254  0.0000000 )
                  (  0.8660254 -0.5000000  0.0000000 )
                  (  0.0000000  0.0000000  1.0000000 )


      isym =  4     120 deg rotation - cryst. axis [0,0,-1]      

 cryst.   s( 4) = (    -1         -1          0      )
                  (     1          0          0      )
                  (     0          0          1      )

 cart.    s( 4) = ( -0.5000000  0.8660254  0.0000000 )
                  ( -0.8660254 -0.5000000  0.0000000 )
                  (  0.0000000  0.0000000  1.0000000 )


      isym =  5     180 deg rotation - cryst. axis [1,-1,0]      

 cryst.   s( 5) = (     0         -1          0      )
                  (    -1          0          0      )
                  (     0          0         -1      )

 cart.    s( 5) = (  0.5000000 -0.8660254  0.0000000 )
                  ( -0.8660254 -0.5000000  0.0000000 )
                  (  0.0000000  0.0000000 -1.0000000 )


      isym =  6     180 deg rotation - cryst. axis [2,1,0]       

 cryst.   s( 6) = (     1          1          0      )
                  (     0         -1          0      )
                  (     0          0         -1      )

 cart.    s( 6) = (  0.5000000  0.8660254  0.0000000 )
                  (  0.8660254 -0.5000000  0.0000000 )
                  (  0.0000000  0.0000000 -1.0000000 )


      isym =  7     inv. 180 deg rotation - cart. axis [0,0,1]   

 cryst.   s( 7) = (     1          0          0      )
                  (     0          1          0      )
                  (     0          0         -1      )

 cart.    s( 7) = (  1.0000000  0.0000000  0.0000000 )
                  (  0.0000000  1.0000000  0.0000000 )
                  (  0.0000000  0.0000000 -1.0000000 )


      isym =  8     inv. 180 deg rotation - cart. axis [1,0,0]   

 cryst.   s( 8) = (    -1          0          0      )
                  (     1          1          0      )
                  (     0          0          1      )

 cart.    s( 8) = ( -1.0000000  0.0000000  0.0000000 )
                  (  0.0000000  1.0000000  0.0000000 )
                  (  0.0000000  0.0000000  1.0000000 )


      isym =  9     inv.  60 deg rotation - cryst. axis [0,0,1]  

 cryst.   s( 9) = (    -1         -1          0      )
                  (     1          0          0      )
                  (     0          0         -1      )

 cart.    s( 9) = ( -0.5000000  0.8660254  0.0000000 )
                  ( -0.8660254 -0.5000000  0.0000000 )
                  (  0.0000000  0.0000000 -1.0000000 )


      isym = 10     inv.  60 deg rotation - cryst. axis [0,0,-1] 

 cryst.   s(10) = (     0          1          0      )
                  (    -1         -1          0      )
                  (     0          0         -1      )

 cart.    s(10) = ( -0.5000000 -0.8660254  0.0000000 )
                  (  0.8660254 -0.5000000  0.0000000 )
                  (  0.0000000  0.0000000 -1.0000000 )


      isym = 11     inv. 180 deg rotation - cryst. axis [0,1,0]  

 cryst.   s(11) = (     1          1          0      )
                  (     0         -1          0      )
                  (     0          0          1      )

 cart.    s(11) = (  0.5000000  0.8660254  0.0000000 )
                  (  0.8660254 -0.5000000  0.0000000 )
                  (  0.0000000  0.0000000  1.0000000 )


      isym = 12     inv. 180 deg rotation - cryst. axis [1,1,0]  

 cryst.   s(12) = (     0         -1          0      )
                  (    -1          0          0      )
                  (     0          0          1      )

 cart.    s(12) = (  0.5000000 -0.8660254  0.0000000 )
                  ( -0.8660254 -0.5000000  0.0000000 )
                  (  0.0000000  0.0000000  1.0000000 )


   Cartesian axes

     site n.     atom                  positions (alat units)
         1           N   tau(   1) = (  -0.0000000   0.5773503   3.9936102  )
         2           B   tau(   2) = (   0.5000000   0.2886751   3.9936102  )

   Crystallographic axes

     site n.     atom                  positions (cryst. coord.)
         1           N   tau(   1) = (  0.3333333  0.6666667  0.5000000  )
         2           B   tau(   2) = (  0.6666667  0.3333333  0.5000000  )

     number of k points=   156
                       cart. coord. in units 2pi/alat
        k(    1) = (   0.0208333   0.0360844   0.0000000), wk =   0.0069444
        k(    2) = (   0.0208333   0.0841969   0.0000000), wk =   0.0138889
        k(    3) = (   0.0208333   0.1323094   0.0000000), wk =   0.0138889
        k(    4) = (   0.0208333   0.1804220   0.0000000), wk =   0.0138889
        k(    5) = (   0.0208333   0.2285345   0.0000000), wk =   0.0138889
        k(    6) = (   0.0208333   0.2766470   0.0000000), wk =   0.0138889
        k(    7) = (   0.0208333   0.3247595   0.0000000), wk =   0.0138889
        k(    8) = (   0.0208333   0.3728720   0.0000000), wk =   0.0138889
        k(    9) = (   0.0208333   0.4209846   0.0000000), wk =   0.0138889
        k(   10) = (   0.0208333   0.4690971   0.0000000), wk =   0.0138889
        k(   11) = (   0.0208333   0.5172096   0.0000000), wk =   0.0138889
        k(   12) = (   0.0208333   0.5653221   0.0000000), wk =   0.0138889
        k(   13) = (   0.0208333  -0.5412659   0.0000000), wk =   0.0138889
        k(   14) = (   0.0208333  -0.4931534   0.0000000), wk =   0.0138889
        k(   15) = (   0.0208333  -0.4450408   0.0000000), wk =   0.0138889
        k(   16) = (   0.0208333  -0.3969283   0.0000000), wk =   0.0138889
        k(   17) = (   0.0208333  -0.3488158   0.0000000), wk =   0.0138889
        k(   18) = (   0.0208333  -0.3007033   0.0000000), wk =   0.0138889
        k(   19) = (   0.0208333  -0.2525907   0.0000000), wk =   0.0138889
        k(   20) = (   0.0208333  -0.2044782   0.0000000), wk =   0.0138889
        k(   21) = (   0.0208333  -0.1563657   0.0000000), wk =   0.0138889
        k(   22) = (   0.0208333  -0.1082532   0.0000000), wk =   0.0138889
        k(   23) = (   0.0208333  -0.0601407   0.0000000), wk =   0.0138889
        k(   24) = (   0.0208333  -0.0120281   0.0000000), wk =   0.0069444
        k(   25) = (   0.0625000   0.1082532   0.0000000), wk =   0.0069444
        k(   26) = (   0.0625000   0.1563657   0.0000000), wk =   0.0138889
        k(   27) = (   0.0625000   0.2044782   0.0000000), wk =   0.0138889
        k(   28) = (   0.0625000   0.2525907   0.0000000), wk =   0.0138889
        k(   29) = (   0.0625000   0.3007033   0.0000000), wk =   0.0138889
        k(   30) = (   0.0625000   0.3488158   0.0000000), wk =   0.0138889
        k(   31) = (   0.0625000   0.3969283   0.0000000), wk =   0.0138889
        k(   32) = (   0.0625000   0.4450408   0.0000000), wk =   0.0138889
        k(   33) = (   0.0625000   0.4931534   0.0000000), wk =   0.0138889
        k(   34) = (   0.0625000   0.5412659   0.0000000), wk =   0.0138889
        k(   35) = (   0.0625000   0.5893784   0.0000000), wk =   0.0138889
        k(   36) = (   0.0625000  -0.5172096   0.0000000), wk =   0.0138889
        k(   37) = (   0.0625000  -0.4690971   0.0000000), wk =   0.0138889
        k(   38) = (   0.0625000  -0.4209846   0.0000000), wk =   0.0138889
        k(   39) = (   0.0625000  -0.3728720   0.0000000), wk =   0.0138889
        k(   40) = (   0.0625000  -0.3247595   0.0000000), wk =   0.0138889
        k(   41) = (   0.0625000  -0.2766470   0.0000000), wk =   0.0138889
        k(   42) = (   0.0625000  -0.2285345   0.0000000), wk =   0.0138889
        k(   43) = (   0.0625000  -0.1804220   0.0000000), wk =   0.0138889
        k(   44) = (   0.0625000  -0.1323094   0.0000000), wk =   0.0138889
        k(   45) = (   0.0625000  -0.0841969   0.0000000), wk =   0.0138889
        k(   46) = (   0.0625000  -0.0360844   0.0000000), wk =   0.0069444
        k(   47) = (   0.1041667   0.1804220   0.0000000), wk =   0.0069444
        k(   48) = (   0.1041667   0.2285345   0.0000000), wk =   0.0138889
        k(   49) = (   0.1041667   0.2766470   0.0000000), wk =   0.0138889
        k(   50) = (   0.1041667   0.3247595   0.0000000), wk =   0.0138889
        k(   51) = (   0.1041667   0.3728720   0.0000000), wk =   0.0138889
        k(   52) = (   0.1041667   0.4209846   0.0000000), wk =   0.0138889
        k(   53) = (   0.1041667   0.4690971   0.0000000), wk =   0.0138889
        k(   54) = (   0.1041667   0.5172096   0.0000000), wk =   0.0138889
        k(   55) = (   0.1041667   0.5653221   0.0000000), wk =   0.0138889
        k(   56) = (   0.1041667   0.6134347   0.0000000), wk =   0.0138889
        k(   57) = (   0.1041667  -0.4931534   0.0000000), wk =   0.0138889
        k(   58) = (   0.1041667  -0.4450408   0.0000000), wk =   0.0138889
        k(   59) = (   0.1041667  -0.3969283   0.0000000), wk =   0.0138889
        k(   60) = (   0.1041667  -0.3488158   0.0000000), wk =   0.0138889
        k(   61) = (   0.1041667  -0.3007033   0.0000000), wk =   0.0138889
        k(   62) = (   0.1041667  -0.2525907   0.0000000), wk =   0.0138889
        k(   63) = (   0.1041667  -0.2044782   0.0000000), wk =   0.0138889
        k(   64) = (   0.1041667  -0.1563657   0.0000000), wk =   0.0138889
        k(   65) = (   0.1041667  -0.1082532   0.0000000), wk =   0.0138889
        k(   66) = (   0.1041667  -0.0601407   0.0000000), wk =   0.0069444
        k(   67) = (   0.1458333   0.2525907   0.0000000), wk =   0.0069444
        k(   68) = (   0.1458333   0.3007033   0.0000000), wk =   0.0138889
        k(   69) = (   0.1458333   0.3488158   0.0000000), wk =   0.0138889
        k(   70) = (   0.1458333   0.3969283   0.0000000), wk =   0.0138889
        k(   71) = (   0.1458333   0.4450408   0.0000000), wk =   0.0138889
        k(   72) = (   0.1458333   0.4931534   0.0000000), wk =   0.0138889
        k(   73) = (   0.1458333   0.5412659   0.0000000), wk =   0.0138889
        k(   74) = (   0.1458333   0.5893784   0.0000000), wk =   0.0138889
        k(   75) = (   0.1458333   0.6374909   0.0000000), wk =   0.0138889
        k(   76) = (   0.1458333  -0.4690971   0.0000000), wk =   0.0138889
        k(   77) = (   0.1458333  -0.4209846   0.0000000), wk =   0.0138889
        k(   78) = (   0.1458333  -0.3728720   0.0000000), wk =   0.0138889
        k(   79) = (   0.1458333  -0.3247595   0.0000000), wk =   0.0138889
        k(   80) = (   0.1458333  -0.2766470   0.0000000), wk =   0.0138889
        k(   81) = (   0.1458333  -0.2285345   0.0000000), wk =   0.0138889
        k(   82) = (   0.1458333  -0.1804220   0.0000000), wk =   0.0138889
        k(   83) = (   0.1458333  -0.1323094   0.0000000), wk =   0.0138889
        k(   84) = (   0.1458333  -0.0841969   0.0000000), wk =   0.0069444
        k(   85) = (   0.1875000   0.3247595   0.0000000), wk =   0.0069444
        k(   86) = (   0.1875000   0.3728720   0.0000000), wk =   0.0138889
        k(   87) = (   0.1875000   0.4209846   0.0000000), wk =   0.0138889
        k(   88) = (   0.1875000   0.4690971   0.0000000), wk =   0.0138889
        k(   89) = (   0.1875000   0.5172096   0.0000000), wk =   0.0138889
        k(   90) = (   0.1875000   0.5653221   0.0000000), wk =   0.0138889
        k(   91) = (   0.1875000   0.6134347   0.0000000), wk =   0.0138889
        k(   92) = (   0.1875000   0.6615472   0.0000000), wk =   0.0138889
        k(   93) = (   0.1875000  -0.4450408   0.0000000), wk =   0.0138889
        k(   94) = (   0.1875000  -0.3969283   0.0000000), wk =   0.0138889
        k(   95) = (   0.1875000  -0.3488158   0.0000000), wk =   0.0138889
        k(   96) = (   0.1875000  -0.3007033   0.0000000), wk =   0.0138889
        k(   97) = (   0.1875000  -0.2525907   0.0000000), wk =   0.0138889
        k(   98) = (   0.1875000  -0.2044782   0.0000000), wk =   0.0138889
        k(   99) = (   0.1875000  -0.1563657   0.0000000), wk =   0.0138889
        k(  100) = (   0.1875000  -0.1082532   0.0000000), wk =   0.0069444
        k(  101) = (   0.2291667   0.3969283   0.0000000), wk =   0.0069444
        k(  102) = (   0.2291667   0.4450408   0.0000000), wk =   0.0138889
        k(  103) = (   0.2291667   0.4931534   0.0000000), wk =   0.0138889
        k(  104) = (   0.2291667   0.5412659   0.0000000), wk =   0.0138889
        k(  105) = (   0.2291667   0.5893784   0.0000000), wk =   0.0138889
        k(  106) = (   0.2291667   0.6374909   0.0000000), wk =   0.0138889
        k(  107) = (   0.2291667   0.6856034   0.0000000), wk =   0.0138889
        k(  108) = (   0.2291667  -0.4209846   0.0000000), wk =   0.0138889
        k(  109) = (   0.2291667  -0.3728720   0.0000000), wk =   0.0138889
        k(  110) = (   0.2291667  -0.3247595   0.0000000), wk =   0.0138889
        k(  111) = (   0.2291667  -0.2766470   0.0000000), wk =   0.0138889
        k(  112) = (   0.2291667  -0.2285345   0.0000000), wk =   0.0138889
        k(  113) = (   0.2291667  -0.1804220   0.0000000), wk =   0.0138889
        k(  114) = (   0.2291667  -0.1323094   0.0000000), wk =   0.0069444
        k(  115) = (   0.2708333   0.4690971   0.0000000), wk =   0.0069444
        k(  116) = (   0.2708333   0.5172096   0.0000000), wk =   0.0138889
        k(  117) = (   0.2708333   0.5653221   0.0000000), wk =   0.0138889
        k(  118) = (   0.2708333   0.6134347   0.0000000), wk =   0.0138889
        k(  119) = (   0.2708333   0.6615472   0.0000000), wk =   0.0138889
        k(  120) = (   0.2708333   0.7096597   0.0000000), wk =   0.0138889
        k(  121) = (   0.2708333  -0.3969283   0.0000000), wk =   0.0138889
        k(  122) = (   0.2708333  -0.3488158   0.0000000), wk =   0.0138889
        k(  123) = (   0.2708333  -0.3007033   0.0000000), wk =   0.0138889
        k(  124) = (   0.2708333  -0.2525907   0.0000000), wk =   0.0138889
        k(  125) = (   0.2708333  -0.2044782   0.0000000), wk =   0.0138889
        k(  126) = (   0.2708333  -0.1563657   0.0000000), wk =   0.0069444
        k(  127) = (   0.3125000   0.5412659   0.0000000), wk =   0.0069444
        k(  128) = (   0.3125000   0.5893784   0.0000000), wk =   0.0138889
        k(  129) = (   0.3125000   0.6374909   0.0000000), wk =   0.0138889
        k(  130) = (   0.3125000   0.6856034   0.0000000), wk =   0.0138889
        k(  131) = (   0.3125000   0.7337160   0.0000000), wk =   0.0138889
        k(  132) = (   0.3125000  -0.3728720   0.0000000), wk =   0.0138889
        k(  133) = (   0.3125000  -0.3247595   0.0000000), wk =   0.0138889
        k(  134) = (   0.3125000  -0.2766470   0.0000000), wk =   0.0138889
        k(  135) = (   0.3125000  -0.2285345   0.0000000), wk =   0.0138889
        k(  136) = (   0.3125000  -0.1804220   0.0000000), wk =   0.0069444
        k(  137) = (   0.3541667   0.6134347   0.0000000), wk =   0.0069444
        k(  138) = (   0.3541667   0.6615472   0.0000000), wk =   0.0138889
        k(  139) = (   0.3541667   0.7096597   0.0000000), wk =   0.0138889
        k(  140) = (   0.3541667   0.7577722   0.0000000), wk =   0.0138889
        k(  141) = (   0.3541667  -0.3488158   0.0000000), wk =   0.0138889
        k(  142) = (   0.3541667  -0.3007033   0.0000000), wk =   0.0138889
        k(  143) = (   0.3541667  -0.2525907   0.0000000), wk =   0.0138889
        k(  144) = (   0.3541667  -0.2044782   0.0000000), wk =   0.0069444
        k(  145) = (   0.3958333   0.6856034   0.0000000), wk =   0.0069444
        k(  146) = (   0.3958333   0.7337160   0.0000000), wk =   0.0138889
        k(  147) = (   0.3958333   0.7818285   0.0000000), wk =   0.0138889
        k(  148) = (   0.3958333  -0.3247595   0.0000000), wk =   0.0138889
        k(  149) = (   0.3958333  -0.2766470   0.0000000), wk =   0.0138889
        k(  150) = (   0.3958333  -0.2285345   0.0000000), wk =   0.0069444
        k(  151) = (   0.4375000   0.7577722   0.0000000), wk =   0.0069444
        k(  152) = (   0.4375000   0.8058848   0.0000000), wk =   0.0138889
        k(  153) = (   0.4375000  -0.3007033   0.0000000), wk =   0.0138889
        k(  154) = (   0.4375000  -0.2525907   0.0000000), wk =   0.0069444
        k(  155) = (   0.4791667   0.8299410   0.0000000), wk =   0.0069444
        k(  156) = (   0.4791667  -0.2766470   0.0000000), wk =   0.0069444

                       cryst. coord.
        k(    1) = (   0.0208333   0.0208333   0.0000000), wk =   0.0069444
        k(    2) = (   0.0208333   0.0625000   0.0000000), wk =   0.0138889
        k(    3) = (   0.0208333   0.1041667   0.0000000), wk =   0.0138889
        k(    4) = (   0.0208333   0.1458333   0.0000000), wk =   0.0138889
        k(    5) = (   0.0208333   0.1875000   0.0000000), wk =   0.0138889
        k(    6) = (   0.0208333   0.2291667   0.0000000), wk =   0.0138889
        k(    7) = (   0.0208333   0.2708333   0.0000000), wk =   0.0138889
        k(    8) = (   0.0208333   0.3125000   0.0000000), wk =   0.0138889
        k(    9) = (   0.0208333   0.3541667   0.0000000), wk =   0.0138889
        k(   10) = (   0.0208333   0.3958333   0.0000000), wk =   0.0138889
        k(   11) = (   0.0208333   0.4375000   0.0000000), wk =   0.0138889
        k(   12) = (   0.0208333   0.4791667   0.0000000), wk =   0.0138889
        k(   13) = (   0.0208333  -0.4791667   0.0000000), wk =   0.0138889
        k(   14) = (   0.0208333  -0.4375000   0.0000000), wk =   0.0138889
        k(   15) = (   0.0208333  -0.3958333   0.0000000), wk =   0.0138889
        k(   16) = (   0.0208333  -0.3541667   0.0000000), wk =   0.0138889
        k(   17) = (   0.0208333  -0.3125000   0.0000000), wk =   0.0138889
        k(   18) = (   0.0208333  -0.2708333   0.0000000), wk =   0.0138889
        k(   19) = (   0.0208333  -0.2291667   0.0000000), wk =   0.0138889
        k(   20) = (   0.0208333  -0.1875000   0.0000000), wk =   0.0138889
        k(   21) = (   0.0208333  -0.1458333   0.0000000), wk =   0.0138889
        k(   22) = (   0.0208333  -0.1041667   0.0000000), wk =   0.0138889
        k(   23) = (   0.0208333  -0.0625000   0.0000000), wk =   0.0138889
        k(   24) = (   0.0208333  -0.0208333   0.0000000), wk =   0.0069444
        k(   25) = (   0.0625000   0.0625000   0.0000000), wk =   0.0069444
        k(   26) = (   0.0625000   0.1041667   0.0000000), wk =   0.0138889
        k(   27) = (   0.0625000   0.1458333   0.0000000), wk =   0.0138889
        k(   28) = (   0.0625000   0.1875000   0.0000000), wk =   0.0138889
        k(   29) = (   0.0625000   0.2291667   0.0000000), wk =   0.0138889
        k(   30) = (   0.0625000   0.2708333   0.0000000), wk =   0.0138889
        k(   31) = (   0.0625000   0.3125000   0.0000000), wk =   0.0138889
        k(   32) = (   0.0625000   0.3541667   0.0000000), wk =   0.0138889
        k(   33) = (   0.0625000   0.3958333   0.0000000), wk =   0.0138889
        k(   34) = (   0.0625000   0.4375000   0.0000000), wk =   0.0138889
        k(   35) = (   0.0625000   0.4791667   0.0000000), wk =   0.0138889
        k(   36) = (   0.0625000  -0.4791667   0.0000000), wk =   0.0138889
        k(   37) = (   0.0625000  -0.4375000   0.0000000), wk =   0.0138889
        k(   38) = (   0.0625000  -0.3958333   0.0000000), wk =   0.0138889
        k(   39) = (   0.0625000  -0.3541667   0.0000000), wk =   0.0138889
        k(   40) = (   0.0625000  -0.3125000   0.0000000), wk =   0.0138889
        k(   41) = (   0.0625000  -0.2708333   0.0000000), wk =   0.0138889
        k(   42) = (   0.0625000  -0.2291667   0.0000000), wk =   0.0138889
        k(   43) = (   0.0625000  -0.1875000   0.0000000), wk =   0.0138889
        k(   44) = (   0.0625000  -0.1458333   0.0000000), wk =   0.0138889
        k(   45) = (   0.0625000  -0.1041667   0.0000000), wk =   0.0138889
        k(   46) = (   0.0625000  -0.0625000   0.0000000), wk =   0.0069444
        k(   47) = (   0.1041667   0.1041667   0.0000000), wk =   0.0069444
        k(   48) = (   0.1041667   0.1458333   0.0000000), wk =   0.0138889
        k(   49) = (   0.1041667   0.1875000   0.0000000), wk =   0.0138889
        k(   50) = (   0.1041667   0.2291667   0.0000000), wk =   0.0138889
        k(   51) = (   0.1041667   0.2708333   0.0000000), wk =   0.0138889
        k(   52) = (   0.1041667   0.3125000   0.0000000), wk =   0.0138889
        k(   53) = (   0.1041667   0.3541667   0.0000000), wk =   0.0138889
        k(   54) = (   0.1041667   0.3958333   0.0000000), wk =   0.0138889
        k(   55) = (   0.1041667   0.4375000   0.0000000), wk =   0.0138889
        k(   56) = (   0.1041667   0.4791667   0.0000000), wk =   0.0138889
        k(   57) = (   0.1041667  -0.4791667   0.0000000), wk =   0.0138889
        k(   58) = (   0.1041667  -0.4375000   0.0000000), wk =   0.0138889
        k(   59) = (   0.1041667  -0.3958333   0.0000000), wk =   0.0138889
        k(   60) = (   0.1041667  -0.3541667   0.0000000), wk =   0.0138889
        k(   61) = (   0.1041667  -0.3125000   0.0000000), wk =   0.0138889
        k(   62) = (   0.1041667  -0.2708333   0.0000000), wk =   0.0138889
        k(   63) = (   0.1041667  -0.2291667   0.0000000), wk =   0.0138889
        k(   64) = (   0.1041667  -0.1875000   0.0000000), wk =   0.0138889
        k(   65) = (   0.1041667  -0.1458333   0.0000000), wk =   0.0138889
        k(   66) = (   0.1041667  -0.1041667   0.0000000), wk =   0.0069444
        k(   67) = (   0.1458333   0.1458333   0.0000000), wk =   0.0069444
        k(   68) = (   0.1458333   0.1875000   0.0000000), wk =   0.0138889
        k(   69) = (   0.1458333   0.2291667   0.0000000), wk =   0.0138889
        k(   70) = (   0.1458333   0.2708333   0.0000000), wk =   0.0138889
        k(   71) = (   0.1458333   0.3125000   0.0000000), wk =   0.0138889
        k(   72) = (   0.1458333   0.3541667   0.0000000), wk =   0.0138889
        k(   73) = (   0.1458333   0.3958333   0.0000000), wk =   0.0138889
        k(   74) = (   0.1458333   0.4375000   0.0000000), wk =   0.0138889
        k(   75) = (   0.1458333   0.4791667   0.0000000), wk =   0.0138889
        k(   76) = (   0.1458333  -0.4791667   0.0000000), wk =   0.0138889
        k(   77) = (   0.1458333  -0.4375000   0.0000000), wk =   0.0138889
        k(   78) = (   0.1458333  -0.3958333   0.0000000), wk =   0.0138889
        k(   79) = (   0.1458333  -0.3541667   0.0000000), wk =   0.0138889
        k(   80) = (   0.1458333  -0.3125000   0.0000000), wk =   0.0138889
        k(   81) = (   0.1458333  -0.2708333   0.0000000), wk =   0.0138889
        k(   82) = (   0.1458333  -0.2291667   0.0000000), wk =   0.0138889
        k(   83) = (   0.1458333  -0.1875000   0.0000000), wk =   0.0138889
        k(   84) = (   0.1458333  -0.1458333   0.0000000), wk =   0.0069444
        k(   85) = (   0.1875000   0.1875000   0.0000000), wk =   0.0069444
        k(   86) = (   0.1875000   0.2291667   0.0000000), wk =   0.0138889
        k(   87) = (   0.1875000   0.2708333   0.0000000), wk =   0.0138889
        k(   88) = (   0.1875000   0.3125000   0.0000000), wk =   0.0138889
        k(   89) = (   0.1875000   0.3541667   0.0000000), wk =   0.0138889
        k(   90) = (   0.1875000   0.3958333   0.0000000), wk =   0.0138889
        k(   91) = (   0.1875000   0.4375000   0.0000000), wk =   0.0138889
        k(   92) = (   0.1875000   0.4791667   0.0000000), wk =   0.0138889
        k(   93) = (   0.1875000  -0.4791667   0.0000000), wk =   0.0138889
        k(   94) = (   0.1875000  -0.4375000   0.0000000), wk =   0.0138889
        k(   95) = (   0.1875000  -0.3958333   0.0000000), wk =   0.0138889
        k(   96) = (   0.1875000  -0.3541667   0.0000000), wk =   0.0138889
        k(   97) = (   0.1875000  -0.3125000   0.0000000), wk =   0.0138889
        k(   98) = (   0.1875000  -0.2708333   0.0000000), wk =   0.0138889
        k(   99) = (   0.1875000  -0.2291667   0.0000000), wk =   0.0138889
        k(  100) = (   0.1875000  -0.1875000   0.0000000), wk =   0.0069444
        k(  101) = (   0.2291667   0.2291667   0.0000000), wk =   0.0069444
        k(  102) = (   0.2291667   0.2708333   0.0000000), wk =   0.0138889
        k(  103) = (   0.2291667   0.3125000   0.0000000), wk =   0.0138889
        k(  104) = (   0.2291667   0.3541667   0.0000000), wk =   0.0138889
        k(  105) = (   0.2291667   0.3958333   0.0000000), wk =   0.0138889
        k(  106) = (   0.2291667   0.4375000   0.0000000), wk =   0.0138889
        k(  107) = (   0.2291667   0.4791667   0.0000000), wk =   0.0138889
        k(  108) = (   0.2291667  -0.4791667   0.0000000), wk =   0.0138889
        k(  109) = (   0.2291667  -0.4375000   0.0000000), wk =   0.0138889
        k(  110) = (   0.2291667  -0.3958333   0.0000000), wk =   0.0138889
        k(  111) = (   0.2291667  -0.3541667   0.0000000), wk =   0.0138889
        k(  112) = (   0.2291667  -0.3125000   0.0000000), wk =   0.0138889
        k(  113) = (   0.2291667  -0.2708333   0.0000000), wk =   0.0138889
        k(  114) = (   0.2291667  -0.2291667   0.0000000), wk =   0.0069444
        k(  115) = (   0.2708333   0.2708333   0.0000000), wk =   0.0069444
        k(  116) = (   0.2708333   0.3125000   0.0000000), wk =   0.0138889
        k(  117) = (   0.2708333   0.3541667   0.0000000), wk =   0.0138889
        k(  118) = (   0.2708333   0.3958333   0.0000000), wk =   0.0138889
        k(  119) = (   0.2708333   0.4375000   0.0000000), wk =   0.0138889
        k(  120) = (   0.2708333   0.4791667   0.0000000), wk =   0.0138889
        k(  121) = (   0.2708333  -0.4791667   0.0000000), wk =   0.0138889
        k(  122) = (   0.2708333  -0.4375000   0.0000000), wk =   0.0138889
        k(  123) = (   0.2708333  -0.3958333   0.0000000), wk =   0.0138889
        k(  124) = (   0.2708333  -0.3541667   0.0000000), wk =   0.0138889
        k(  125) = (   0.2708333  -0.3125000   0.0000000), wk =   0.0138889
        k(  126) = (   0.2708333  -0.2708333   0.0000000), wk =   0.0069444
        k(  127) = (   0.3125000   0.3125000   0.0000000), wk =   0.0069444
        k(  128) = (   0.3125000   0.3541667   0.0000000), wk =   0.0138889
        k(  129) = (   0.3125000   0.3958333   0.0000000), wk =   0.0138889
        k(  130) = (   0.3125000   0.4375000   0.0000000), wk =   0.0138889
        k(  131) = (   0.3125000   0.4791667   0.0000000), wk =   0.0138889
        k(  132) = (   0.3125000  -0.4791667   0.0000000), wk =   0.0138889
        k(  133) = (   0.3125000  -0.4375000   0.0000000), wk =   0.0138889
        k(  134) = (   0.3125000  -0.3958333   0.0000000), wk =   0.0138889
        k(  135) = (   0.3125000  -0.3541667   0.0000000), wk =   0.0138889
        k(  136) = (   0.3125000  -0.3125000   0.0000000), wk =   0.0069444
        k(  137) = (   0.3541667   0.3541667   0.0000000), wk =   0.0069444
        k(  138) = (   0.3541667   0.3958333   0.0000000), wk =   0.0138889
        k(  139) = (   0.3541667   0.4375000   0.0000000), wk =   0.0138889
        k(  140) = (   0.3541667   0.4791667   0.0000000), wk =   0.0138889
        k(  141) = (   0.3541667  -0.4791667   0.0000000), wk =   0.0138889
        k(  142) = (   0.3541667  -0.4375000   0.0000000), wk =   0.0138889
        k(  143) = (   0.3541667  -0.3958333   0.0000000), wk =   0.0138889
        k(  144) = (   0.3541667  -0.3541667   0.0000000), wk =   0.0069444
        k(  145) = (   0.3958333   0.3958333   0.0000000), wk =   0.0069444
        k(  146) = (   0.3958333   0.4375000   0.0000000), wk =   0.0138889
        k(  147) = (   0.3958333   0.4791667   0.0000000), wk =   0.0138889
        k(  148) = (   0.3958333  -0.4791667   0.0000000), wk =   0.0138889
        k(  149) = (   0.3958333  -0.4375000   0.0000000), wk =   0.0138889
        k(  150) = (   0.3958333  -0.3958333   0.0000000), wk =   0.0069444
        k(  151) = (   0.4375000   0.4375000   0.0000000), wk =   0.0069444
        k(  152) = (   0.4375000   0.4791667   0.0000000), wk =   0.0138889
        k(  153) = (   0.4375000  -0.4791667   0.0000000), wk =   0.0138889
        k(  154) = (   0.4375000  -0.4375000   0.0000000), wk =   0.0069444
        k(  155) = (   0.4791667   0.4791667   0.0000000), wk =   0.0069444
        k(  156) = (   0.4791667  -0.4791667   0.0000000), wk =   0.0069444

     Dense  grid:    58173 G-vectors     FFT dimensions: (  25,  25, 216)

     Dynamical RAM for                 wfc:       0.01 MB

     Dynamical RAM for     wfc (w. buffer):       0.54 MB

     Dynamical RAM for           str. fact:       0.03 MB

     Dynamical RAM for           local pot:       0.00 MB

     Dynamical RAM for          nlocal pot:       0.03 MB

     Dynamical RAM for                qrad:       0.77 MB

     Dynamical RAM for          rho,v,vnew:       0.10 MB

     Dynamical RAM for               rhoin:       0.03 MB

     Dynamical RAM for            rho*nmix:       0.21 MB

     Dynamical RAM for           G-vectors:       0.06 MB

     Dynamical RAM for          h,s,v(r/c):       0.01 MB

     Dynamical RAM for          <psi|beta>:       0.00 MB

     Dynamical RAM for                 psi:       0.03 MB

     Dynamical RAM for                hpsi:       0.03 MB

     Dynamical RAM for      wfcinit/wfcrot:       0.03 MB

     Estimated static dynamical RAM per process >       1.69 MB

     Estimated max dynamical RAM per process >       1.97 MB

     Estimated total dynamical RAM >     238.72 MB

     Initial potential from superposition of free atoms

     starting charge       7.9998, renormalised to       8.0000

     negative rho (up, down):  1.260E-05 0.000E+00
     Starting wfcs are    8 randomized atomic wfcs

     total cpu time spent up to now is        0.3 secs

     Self-consistent Calculation

     iteration #  1     ecut=    70.00 Ry     beta= 0.70
     Davidson diagonalization with overlap

---- Real-time Memory Report at c_bands before calling an iterative solver
           170 MiB given to the printing process from OS
             0 MiB allocation reported by mallinfo(arena+hblkhd)
        485442 MiB available memory on the node where the printing process lives
------------------
     ethr =  1.00E-02,  avg # of iterations =  2.0

     total cpu time spent up to now is        0.7 secs

     total energy              =     -25.65039434 Ry
     estimated scf accuracy    <       0.43413869 Ry

     iteration #  2     ecut=    70.00 Ry     beta= 0.70
     Davidson diagonalization with overlap

---- Real-time Memory Report at c_bands before calling an iterative solver
           172 MiB given to the printing process from OS
             0 MiB allocation reported by mallinfo(arena+hblkhd)
        485262 MiB available memory on the node where the printing process lives
------------------
     ethr =  5.43E-03,  avg # of iterations =  3.0

     total cpu time spent up to now is        1.0 secs

     total energy              =     -25.75894494 Ry
     estimated scf accuracy    <       0.24378247 Ry

     iteration #  3     ecut=    70.00 Ry     beta= 0.70
     Davidson diagonalization with overlap

---- Real-time Memory Report at c_bands before calling an iterative solver
           174 MiB given to the printing process from OS
             0 MiB allocation reported by mallinfo(arena+hblkhd)
        485125 MiB available memory on the node where the printing process lives
------------------
     ethr =  3.05E-03,  avg # of iterations =  2.4

     total cpu time spent up to now is        1.3 secs

     total energy              =     -25.80675822 Ry
     estimated scf accuracy    <       0.00202610 Ry

     iteration #  4     ecut=    70.00 Ry     beta= 0.70
     Davidson diagonalization with overlap

---- Real-time Memory Report at c_bands before calling an iterative solver
           175 MiB given to the printing process from OS
             0 MiB allocation reported by mallinfo(arena+hblkhd)
        485118 MiB available memory on the node where the printing process lives
------------------
     ethr =  2.53E-05,  avg # of iterations =  3.5

     total cpu time spent up to now is        1.7 secs

     total energy              =     -25.80870252 Ry
     estimated scf accuracy    <       0.00106259 Ry

     iteration #  5     ecut=    70.00 Ry     beta= 0.70
     Davidson diagonalization with overlap

---- Real-time Memory Report at c_bands before calling an iterative solver
           175 MiB given to the printing process from OS
             0 MiB allocation reported by mallinfo(arena+hblkhd)
        485095 MiB available memory on the node where the printing process lives
------------------
     ethr =  1.33E-05,  avg # of iterations =  1.0

     total cpu time spent up to now is        1.9 secs

     total energy              =     -25.80860120 Ry
     estimated scf accuracy    <       0.00025537 Ry

     iteration #  6     ecut=    70.00 Ry     beta= 0.70
     Davidson diagonalization with overlap

---- Real-time Memory Report at c_bands before calling an iterative solver
           177 MiB given to the printing process from OS
             0 MiB allocation reported by mallinfo(arena+hblkhd)
        485099 MiB available memory on the node where the printing process lives
------------------
     ethr =  3.19E-06,  avg # of iterations =  2.9

     total cpu time spent up to now is        2.2 secs

     total energy              =     -25.80869028 Ry
     estimated scf accuracy    <       0.00011565 Ry

     iteration #  7     ecut=    70.00 Ry     beta= 0.70
     Davidson diagonalization with overlap

---- Real-time Memory Report at c_bands before calling an iterative solver
           178 MiB given to the printing process from OS
             0 MiB allocation reported by mallinfo(arena+hblkhd)
        485069 MiB available memory on the node where the printing process lives
------------------
     ethr =  1.45E-06,  avg # of iterations =  2.0

     total cpu time spent up to now is        2.4 secs

     total energy              =     -25.80870391 Ry
     estimated scf accuracy    <       0.00000451 Ry

     iteration #  8     ecut=    70.00 Ry     beta= 0.70
     Davidson diagonalization with overlap

---- Real-time Memory Report at c_bands before calling an iterative solver
           178 MiB given to the printing process from OS
             0 MiB allocation reported by mallinfo(arena+hblkhd)
        485066 MiB available memory on the node where the printing process lives
------------------
     ethr =  5.64E-08,  avg # of iterations =  3.0

     total cpu time spent up to now is        2.7 secs

     total energy              =     -25.80870684 Ry
     estimated scf accuracy    <       0.00000025 Ry

     iteration #  9     ecut=    70.00 Ry     beta= 0.70
     Davidson diagonalization with overlap

---- Real-time Memory Report at c_bands before calling an iterative solver
           179 MiB given to the printing process from OS
             0 MiB allocation reported by mallinfo(arena+hblkhd)
        485066 MiB available memory on the node where the printing process lives
------------------
     ethr =  3.11E-09,  avg # of iterations =  1.5

     total cpu time spent up to now is        2.9 secs

     total energy              =     -25.80870682 Ry
     estimated scf accuracy    <       0.00000009 Ry

     iteration # 10     ecut=    70.00 Ry     beta= 0.70
     Davidson diagonalization with overlap

---- Real-time Memory Report at c_bands before calling an iterative solver
           179 MiB given to the printing process from OS
             0 MiB allocation reported by mallinfo(arena+hblkhd)
        485066 MiB available memory on the node where the printing process lives
------------------
     ethr =  1.14E-09,  avg # of iterations =  2.5

     total cpu time spent up to now is        3.2 secs

     total energy              =     -25.80870684 Ry
     estimated scf accuracy    <          1.3E-09 Ry

     iteration # 11     ecut=    70.00 Ry     beta= 0.70
     Davidson diagonalization with overlap

---- Real-time Memory Report at c_bands before calling an iterative solver
           179 MiB given to the printing process from OS
             0 MiB allocation reported by mallinfo(arena+hblkhd)
        485064 MiB available memory on the node where the printing process lives
------------------
     ethr =  1.65E-11,  avg # of iterations =  2.3

     total cpu time spent up to now is        3.5 secs

     total energy              =     -25.80870684 Ry
     estimated scf accuracy    <          9.8E-10 Ry

     iteration # 12     ecut=    70.00 Ry     beta= 0.70
     Davidson diagonalization with overlap

---- Real-time Memory Report at c_bands before calling an iterative solver
           179 MiB given to the printing process from OS
             0 MiB allocation reported by mallinfo(arena+hblkhd)
        485062 MiB available memory on the node where the printing process lives
------------------
     ethr =  1.22E-11,  avg # of iterations =  2.2

     total cpu time spent up to now is        3.7 secs

     total energy              =     -25.80870684 Ry
     estimated scf accuracy    <          1.2E-10 Ry

     iteration # 13     ecut=    70.00 Ry     beta= 0.70
     Davidson diagonalization with overlap

---- Real-time Memory Report at c_bands before calling an iterative solver
           179 MiB given to the printing process from OS
             0 MiB allocation reported by mallinfo(arena+hblkhd)
        485056 MiB available memory on the node where the printing process lives
------------------
     ethr =  1.50E-12,  avg # of iterations =  2.0

     total cpu time spent up to now is        4.0 secs

     End of self-consistent calculation

          k = 0.0208 0.0361 0.0000 (  7263 PWs)   bands (ev):

   -21.7739  -9.6398  -5.8610  -5.8065

     occupation numbers 
     1.0000   1.0000   1.0000   1.0000

          k = 0.0208 0.0842 0.0000 (  7273 PWs)   bands (ev):

   -21.6907  -9.5269  -6.2003  -5.9723

     occupation numbers 
     1.0000   1.0000   1.0000   1.0000

          k = 0.0208 0.1323 0.0000 (  7262 PWs)   bands (ev):

   -21.5420  -9.3248  -6.7649  -6.2429

     occupation numbers 
     1.0000   1.0000   1.0000   1.0000

          k = 0.0208 0.1804 0.0000 (  7258 PWs)   bands (ev):

   -21.3300  -9.0361  -7.4961  -6.5814

     occupation numbers 
     1.0000   1.0000   1.0000   1.0000

          k = 0.0208 0.2285 0.0000 (  7256 PWs)   bands (ev):

   -21.0579  -8.6646  -8.3347  -6.9517

     occupation numbers 
     1.0000   1.0000   1.0000   1.0000

          k = 0.0208 0.2766 0.0000 (  7255 PWs)   bands (ev):

   -20.7312  -9.2290  -8.2165  -7.3227

     occupation numbers 
     1.0000   1.0000   1.0000   1.0000

          k = 0.0208 0.3248 0.0000 (  7242 PWs)   bands (ev):

   -20.3584 -10.1344  -7.7016  -7.6705

     occupation numbers 
     1.0000   1.0000   1.0000   1.0000

          k = 0.0208 0.3729 0.0000 (  7248 PWs)   bands (ev):

   -19.9532 -11.0106  -7.9779  -7.1360

     occupation numbers 
     1.0000   1.0000   1.0000   1.0000

          k = 0.0208 0.4210 0.0000 (  7262 PWs)   bands (ev):

   -19.5381 -11.8159  -8.2321  -6.5467

     occupation numbers 
     1.0000   1.0000   1.0000   1.0000

          k = 0.0208 0.4691 0.0000 (  7263 PWs)   bands (ev):

   -19.1498 -12.4998  -8.4246  -5.9813

     occupation numbers 
     1.0000   1.0000   1.0000   1.0000

          k = 0.0208 0.5172 0.0000 (  7257 PWs)   bands (ev):

   -18.8452 -12.9964  -8.5496  -5.5225

     occupation numbers 
     1.0000   1.0000   1.0000   1.0000

          k = 0.0208 0.5653 0.0000 (  7270 PWs)   bands (ev):

   -18.6951 -13.2298  -8.6038  -5.2889

     occupation numbers 
     1.0000   1.0000   1.0000   1.0000

          k = 0.0208-0.5413 0.0000 (  7262 PWs)   bands (ev):

   -18.7467 -13.1503  -8.5857  -5.3699

     occupation numbers 
     1.0000   1.0000   1.0000   1.0000

          k = 0.0208-0.4932 0.0000 (  7261 PWs)   bands (ev):

   -18.9827 -12.7763  -8.4958  -5.7317

     occupation numbers 
     1.0000   1.0000   1.0000   1.0000

          k = 0.0208-0.4450 0.0000 (  7258 PWs)   bands (ev):

   -19.3375 -12.1767  -8.3365  -6.2568

     occupation numbers 
     1.0000   1.0000   1.0000   1.0000

          k = 0.0208-0.3969 0.0000 (  7254 PWs)   bands (ev):

   -19.7450 -11.4250  -8.1123  -6.8419

     occupation numbers 
     1.0000   1.0000   1.0000   1.0000

          k = 0.0208-0.3488 0.0000 (  7249 PWs)   bands (ev):

   -20.1588 -10.5787  -7.8302  -7.4238

     occupation numbers 
     1.0000   1.0000   1.0000   1.0000

          k = 0.0208-0.3007 0.0000 (  7249 PWs)   bands (ev):

   -20.5499  -9.6829  -7.9666  -7.5007

     occupation numbers 
     1.0000   1.0000   1.0000   1.0000

          k = 0.0208-0.2526 0.0000 (  7254 PWs)   bands (ev):

   -20.9009  -8.7778  -8.4496  -7.1387

     occupation numbers 
     1.0000   1.0000   1.0000   1.0000

          k = 0.0208-0.2045 0.0000 (  7263 PWs)   bands (ev):

   -21.2011  -8.8604  -7.9054  -6.7647

     occupation numbers 
     1.0000   1.0000   1.0000   1.0000

          k = 0.0208-0.1564 0.0000 (  7267 PWs)   bands (ev):

   -21.4437  -9.1911  -7.1136  -6.4060

     occupation numbers 
     1.0000   1.0000   1.0000   1.0000

          k = 0.0208-0.1083 0.0000 (  7269 PWs)   bands (ev):

   -21.6244  -9.4369  -6.4580  -6.0967

     occupation numbers 
     1.0000   1.0000   1.0000   1.0000

          k = 0.0208-0.0601 0.0000 (  7269 PWs)   bands (ev):

   -21.7405  -9.5946  -5.9992  -5.8743

     occupation numbers 
     1.0000   1.0000   1.0000   1.0000

          k = 0.0208-0.0120 0.0000 (  7269 PWs)   bands (ev):

   -21.7906  -9.6624  -5.7905  -5.7720

     occupation numbers 
     1.0000   1.0000   1.0000   1.0000

          k = 0.0625 0.1083 0.0000 (  7267 PWs)   bands (ev):

   -21.5749  -9.3696  -6.6265  -6.2051

     occupation numbers 
     1.0000   1.0000   1.0000   1.0000

          k = 0.0625 0.1564 0.0000 (  7268 PWs)   bands (ev):

   -21.3948  -9.1245  -7.2380  -6.5338

     occupation numbers 
     1.0000   1.0000   1.0000   1.0000

          k = 0.0625 0.2045 0.0000 (  7261 PWs)   bands (ev):

   -21.1530  -8.7947  -7.9880  -6.9120

     occupation numbers 
     1.0000   1.0000   1.0000   1.0000

          k = 0.0625 0.2526 0.0000 (  7258 PWs)   bands (ev):

   -20.8539  -8.8261  -8.3852  -7.3017

     occupation numbers 
     1.0000   1.0000   1.0000   1.0000

          k = 0.0625 0.3007 0.0000 (  7256 PWs)   bands (ev):

   -20.5043  -9.7049  -7.9039  -7.6751

     occupation numbers 
     1.0000   1.0000   1.0000   1.0000

          k = 0.0625 0.3488 0.0000 (  7259 PWs)   bands (ev):

   -20.1149 -10.5809  -8.0124  -7.3631

     occupation numbers 
     1.0000   1.0000   1.0000   1.0000

          k = 0.0625 0.3969 0.0000 (  7256 PWs)   bands (ev):

   -19.7033 -11.4124  -8.2995  -6.7837

     occupation numbers 
     1.0000   1.0000   1.0000   1.0000

          k = 0.0625 0.4450 0.0000 (  7260 PWs)   bands (ev):

   -19.2983 -12.1530  -8.5269  -6.2014

     occupation numbers 
     1.0000   1.0000   1.0000   1.0000

          k = 0.0625 0.4932 0.0000 (  7254 PWs)   bands (ev):

   -18.9461 -12.7445  -8.6880  -5.6793

     occupation numbers 
     1.0000   1.0000   1.0000   1.0000

          k = 0.0625 0.5413 0.0000 (  7245 PWs)   bands (ev):

   -18.7122 -13.1137  -8.7787  -5.3197

     occupation numbers 
     1.0000   1.0000   1.0000   1.0000

          k = 0.0625 0.5894 0.0000 (  7242 PWs)   bands (ev):

   -18.6611 -13.1921  -8.7969  -5.2392

     occupation numbers 
     1.0000   1.0000   1.0000   1.0000

          k = 0.0625-0.5172 0.0000 (  7254 PWs)   bands (ev):

   -18.8098 -12.9618  -8.7423  -5.4714

     occupation numbers 
     1.0000   1.0000   1.0000   1.0000

          k = 0.0625-0.4691 0.0000 (  7268 PWs)   bands (ev):

   -19.1119 -12.4717  -8.6160  -5.9274

     occupation numbers 
     1.0000   1.0000   1.0000   1.0000

          k = 0.0625-0.4210 0.0000 (  7256 PWs)   bands (ev):

   -19.4976 -11.7973  -8.4211  -6.4898

     occupation numbers 
     1.0000   1.0000   1.0000   1.0000

          k = 0.0625-0.3729 0.0000 (  7253 PWs)   bands (ev):

   -19.9104 -11.0049  -8.1629  -7.0765

     occupation numbers 
     1.0000   1.0000   1.0000   1.0000

          k = 0.0625-0.3248 0.0000 (  7257 PWs)   bands (ev):

   -20.3137 -10.1458  -7.8492  -7.6399

     occupation numbers 
     1.0000   1.0000   1.0000   1.0000

          k = 0.0625-0.2766 0.0000 (  7258 PWs)   bands (ev):

   -20.6849  -9.2632  -8.1529  -7.4918

     occupation numbers 
     1.0000   1.0000   1.0000   1.0000

          k = 0.0625-0.2285 0.0000 (  7262 PWs)   bands (ev):

   -21.0103  -8.5995  -8.3991  -7.1073

     occupation numbers 
     1.0000   1.0000   1.0000   1.0000

          k = 0.0625-0.1804 0.0000 (  7269 PWs)   bands (ev):

   -21.2814  -8.9699  -7.5988  -6.7194

     occupation numbers 
     1.0000   1.0000   1.0000   1.0000

          k = 0.0625-0.1323 0.0000 (  7267 PWs)   bands (ev):

   -21.4928  -9.2578  -6.9118  -6.3605

     occupation numbers 
     1.0000   1.0000   1.0000   1.0000

          k = 0.0625-0.0842 0.0000 (  7273 PWs)   bands (ev):

   -21.6410  -9.4593  -6.3878  -6.0737

     occupation numbers 
     1.0000   1.0000   1.0000   1.0000

          k = 0.0625-0.0361 0.0000 (  7257 PWs)   bands (ev):

   -21.7239  -9.5720  -6.0687  -5.9056

     occupation numbers 
     1.0000   1.0000   1.0000   1.0000

          k = 0.1042 0.1804 0.0000 (  7277 PWs)   bands (ev):

   -21.1849  -8.8383  -7.8442  -6.9263

     occupation numbers 
     1.0000   1.0000   1.0000   1.0000

          k = 0.1042 0.2285 0.0000 (  7273 PWs)   bands (ev):

   -20.9158  -8.5604  -8.4702  -7.3573

     occupation numbers 
     1.0000   1.0000   1.0000   1.0000

          k = 0.1042 0.2766 0.0000 (  7256 PWs)   bands (ev):

   -20.5930  -9.3538  -8.0266  -7.7790

     occupation numbers 
     1.0000   1.0000   1.0000   1.0000

          k = 0.1042 0.3248 0.0000 (  7253 PWs)   bands (ev):

   -20.2251 -10.1826  -8.1635  -7.5175

     occupation numbers 
     1.0000   1.0000   1.0000   1.0000

          k = 0.1042 0.3729 0.0000 (  7247 PWs)   bands (ev):

   -19.8260 -11.0019  -8.4952  -6.9589

     occupation numbers 
     1.0000   1.0000   1.0000   1.0000

          k = 0.1042 0.4210 0.0000 (  7249 PWs)   bands (ev):

   -19.4182 -11.7650  -8.7650  -6.3779

     occupation numbers 
     1.0000   1.0000   1.0000   1.0000

          k = 0.1042 0.4691 0.0000 (  7247 PWs)   bands (ev):

   -19.0380 -12.4180  -8.9669  -5.8217

     occupation numbers 
     1.0000   1.0000   1.0000   1.0000

          k = 0.1042 0.5172 0.0000 (  7241 PWs)   bands (ev):

   -18.7411 -12.8937  -9.0971  -5.3716

     occupation numbers 
     1.0000   1.0000   1.0000   1.0000

          k = 0.1042 0.5653 0.0000 (  7244 PWs)   bands (ev):

   -18.5953 -13.1173  -9.1533  -5.1428

     occupation numbers 
     1.0000   1.0000   1.0000   1.0000

          k = 0.1042 0.6134 0.0000 (  7238 PWs)   bands (ev):

   -18.6454 -13.0412  -9.1346  -5.2221

     occupation numbers 
     1.0000   1.0000   1.0000   1.0000

          k = 0.1042-0.4932 0.0000 (  7253 PWs)   bands (ev):

   -18.8750 -12.6828  -9.0412  -5.5767

     occupation numbers 
     1.0000   1.0000   1.0000   1.0000

          k = 0.1042-0.4450 0.0000 (  7247 PWs)   bands (ev):

   -19.2216 -12.1091  -8.8747  -6.0926

     occupation numbers 
     1.0000   1.0000   1.0000   1.0000

          k = 0.1042-0.3969 0.0000 (  7251 PWs)   bands (ev):

   -19.6213 -11.3936  -8.6383  -6.6688

     occupation numbers 
     1.0000   1.0000   1.0000   1.0000

          k = 0.1042-0.3488 0.0000 (  7251 PWs)   bands (ev):

   -20.0283 -10.5962  -8.3366  -7.2430

     occupation numbers 
     1.0000   1.0000   1.0000   1.0000

          k = 0.1042-0.3007 0.0000 (  7249 PWs)   bands (ev):

   -20.4140  -9.7665  -7.9771  -7.7794

     occupation numbers 
     1.0000   1.0000   1.0000   1.0000

          k = 0.1042-0.2526 0.0000 (  7264 PWs)   bands (ev):

   -20.7607  -8.9499  -8.2574  -7.5715

     occupation numbers 
     1.0000   1.0000   1.0000   1.0000

          k = 0.1042-0.2045 0.0000 (  7271 PWs)   bands (ev):

   -21.0575  -8.6641  -8.1903  -7.1405

     occupation numbers 
     1.0000   1.0000   1.0000   1.0000

          k = 0.1042-0.1564 0.0000 (  7269 PWs)   bands (ev):

   -21.2975  -8.9919  -7.5258  -6.7213

     occupation numbers 
     1.0000   1.0000   1.0000   1.0000

          k = 0.1042-0.1083 0.0000 (  7263 PWs)   bands (ev):

   -21.4764  -9.2356  -6.9833  -6.3720

     occupation numbers 
     1.0000   1.0000   1.0000   1.0000

          k = 0.1042-0.0601 0.0000 (  7259 PWs)   bands (ev):

   -21.5914  -9.3920  -6.5873  -6.1511

     occupation numbers 
     1.0000   1.0000   1.0000   1.0000

          k = 0.1458 0.2526 0.0000 (  7251 PWs)   bands (ev):

   -20.6228  -9.2049  -8.0678  -7.8475

     occupation numbers 
     1.0000   1.0000   1.0000   1.0000

          k = 0.1458 0.3007 0.0000 (  7250 PWs)   bands (ev):

   -20.2809  -9.9117  -8.3175  -7.5955

     occupation numbers 
     1.0000   1.0000   1.0000   1.0000

          k = 0.1458 0.3488 0.0000 (  7250 PWs)   bands (ev):

   -19.9015 -10.6534  -8.7285  -7.0662

     occupation numbers 
     1.0000   1.0000   1.0000   1.0000

          k = 0.1458 0.3969 0.0000 (  7243 PWs)   bands (ev):

   -19.5020 -11.3857  -9.0654  -6.5006

     occupation numbers 
     1.0000   1.0000   1.0000   1.0000

          k = 0.1458 0.4450 0.0000 (  7237 PWs)   bands (ev):

   -19.1111 -12.0544  -9.3242  -5.9344

     occupation numbers 
     1.0000   1.0000   1.0000   1.0000

          k = 0.1458 0.4932 0.0000 (  7253 PWs)   bands (ev):

   -18.7736 -12.5955  -9.5037  -5.4291

     occupation numbers 
     1.0000   1.0000   1.0000   1.0000

          k = 0.1458 0.5413 0.0000 (  7240 PWs)   bands (ev):

   -18.5512 -12.9348  -9.6035  -5.0827

     occupation numbers 
     1.0000   1.0000   1.0000   1.0000

          k = 0.1458 0.5894 0.0000 (  7252 PWs)   bands (ev):

   -18.5027 -13.0069  -9.6236  -5.0055

     occupation numbers 
     1.0000   1.0000   1.0000   1.0000

          k = 0.1458 0.6375 0.0000 (  7251 PWs)   bands (ev):

   -18.6438 -12.7951  -9.5636  -5.2287

     occupation numbers 
     1.0000   1.0000   1.0000   1.0000

          k = 0.1458-0.4691 0.0000 (  7241 PWs)   bands (ev):

   -18.9321 -12.3453  -9.4239  -5.6689

     occupation numbers 
     1.0000   1.0000   1.0000   1.0000

          k = 0.1458-0.4210 0.0000 (  7238 PWs)   bands (ev):

   -19.3031 -11.7317  -9.2046  -6.2145

     occupation numbers 
     1.0000   1.0000   1.0000   1.0000

          k = 0.1458-0.3729 0.0000 (  7241 PWs)   bands (ev):

   -19.7027 -11.0239  -8.9066  -6.7862

     occupation numbers 
     1.0000   1.0000   1.0000   1.0000

          k = 0.1458-0.3248 0.0000 (  7260 PWs)   bands (ev):

   -20.0950 -10.2807  -8.5317  -7.3370

     occupation numbers 
     1.0000   1.0000   1.0000   1.0000

          k = 0.1458-0.2766 0.0000 (  7254 PWs)   bands (ev):

   -20.4574  -9.5518  -8.0882  -7.8397

     occupation numbers 
     1.0000   1.0000   1.0000   1.0000

          k = 0.1458-0.2285 0.0000 (  7271 PWs)   bands (ev):

   -20.7759  -8.8739  -8.2784  -7.6014

     occupation numbers 
     1.0000   1.0000   1.0000   1.0000

          k = 0.1458-0.1804 0.0000 (  7267 PWs)   bands (ev):

   -21.0417  -8.6426  -8.2649  -7.1244

     occupation numbers 
     1.0000   1.0000   1.0000   1.0000

          k = 0.1458-0.1323 0.0000 (  7269 PWs)   bands (ev):

   -21.2492  -8.9260  -7.7309  -6.7288

     occupation numbers 
     1.0000   1.0000   1.0000   1.0000

          k = 0.1458-0.0842 0.0000 (  7265 PWs)   bands (ev):

   -21.3949  -9.1245  -7.2880  -6.4740

     occupation numbers 
     1.0000   1.0000   1.0000   1.0000

          k = 0.1875 0.3248 0.0000 (  7262 PWs)   bands (ev):

   -19.9269 -10.5023  -8.8439  -7.1023

     occupation numbers 
     1.0000   1.0000   1.0000   1.0000

          k = 0.1875 0.3729 0.0000 (  7256 PWs)   bands (ev):

   -19.5450 -11.1180  -9.3008  -6.5635

     occupation numbers 
     1.0000   1.0000   1.0000   1.0000

          k = 0.1875 0.4210 0.0000 (  7231 PWs)   bands (ev):

   -19.1579 -11.7259  -9.6610  -6.0063

     occupation numbers 
     1.0000   1.0000   1.0000   1.0000

          k = 0.1875 0.4691 0.0000 (  7235 PWs)   bands (ev):

   -18.8010 -12.2684  -9.9203  -5.4770

     occupation numbers 
     1.0000   1.0000   1.0000   1.0000

          k = 0.1875 0.5172 0.0000 (  7249 PWs)   bands (ev):

   -18.5257 -12.6725 -10.0825  -5.0522

     occupation numbers 
     1.0000   1.0000   1.0000   1.0000

          k = 0.1875 0.5653 0.0000 (  7236 PWs)   bands (ev):

   -18.3918 -12.8640 -10.1512  -4.8379

     occupation numbers 
     1.0000   1.0000   1.0000   1.0000

          k = 0.1875 0.6134 0.0000 (  7238 PWs)   bands (ev):

   -18.4377 -12.7988 -10.1283  -4.9120

     occupation numbers 
     1.0000   1.0000   1.0000   1.0000

          k = 0.1875 0.6615 0.0000 (  7241 PWs)   bands (ev):

   -18.6493 -12.4927 -10.0132  -5.2453

     occupation numbers 
     1.0000   1.0000   1.0000   1.0000

          k = 0.1875-0.4450 0.0000 (  7230 PWs)   bands (ev):

   -18.9728 -12.0097  -9.8031  -5.7342

     occupation numbers 
     1.0000   1.0000   1.0000   1.0000

          k = 0.1875-0.3969 0.0000 (  7242 PWs)   bands (ev):

   -19.3503 -11.4261  -9.4936  -6.2849

     occupation numbers 
     1.0000   1.0000   1.0000   1.0000

          k = 0.1875-0.3488 0.0000 (  7260 PWs)   bands (ev):

   -19.7383 -10.8084  -9.0835  -6.8373

     occupation numbers 
     1.0000   1.0000   1.0000   1.0000

          k = 0.1875-0.3007 0.0000 (  7254 PWs)   bands (ev):

   -20.1084 -10.2029  -8.5864  -7.3558

     occupation numbers 
     1.0000   1.0000   1.0000   1.0000

          k = 0.1875-0.2526 0.0000 (  7249 PWs)   bands (ev):

   -20.4429  -9.6289  -8.0453  -7.8196

     occupation numbers 
     1.0000   1.0000   1.0000   1.0000

          k = 0.1875-0.2045 0.0000 (  7258 PWs)   bands (ev):

   -20.7303  -9.0862  -8.2155  -7.5282

     occupation numbers 
     1.0000   1.0000   1.0000   1.0000

          k = 0.1875-0.1564 0.0000 (  7255 PWs)   bands (ev):

   -20.9633  -8.5749  -8.5351  -7.1075

     occupation numbers 
     1.0000   1.0000   1.0000   1.0000

          k = 0.1875-0.1083 0.0000 (  7267 PWs)   bands (ev):

   -21.1373  -8.7731  -8.1096  -6.8375

     occupation numbers 
     1.0000   1.0000   1.0000   1.0000

          k = 0.2292 0.3969 0.0000 (  7242 PWs)   bands (ev):

   -19.1740 -11.5780  -9.8140  -6.0310

     occupation numbers 
     1.0000   1.0000   1.0000   1.0000

          k = 0.2292 0.4450 0.0000 (  7229 PWs)   bands (ev):

   -18.8165 -12.0195 -10.2194  -5.5038

     occupation numbers 
     1.0000   1.0000   1.0000   1.0000

          k = 0.2292 0.4932 0.0000 (  7230 PWs)   bands (ev):

   -18.5135 -12.3975 -10.4970  -5.0400

     occupation numbers 
     1.0000   1.0000   1.0000   1.0000

          k = 0.2292 0.5413 0.0000 (  7222 PWs)   bands (ev):

   -18.3175 -12.6433 -10.6477  -4.7269

     occupation numbers 
     1.0000   1.0000   1.0000   1.0000

          k = 0.2292 0.5894 0.0000 (  7232 PWs)   bands (ev):

   -18.2754 -12.6962 -10.6774  -4.6577

     occupation numbers 
     1.0000   1.0000   1.0000   1.0000

          k = 0.2292 0.6375 0.0000 (  7222 PWs)   bands (ev):

   -18.3987 -12.5413 -10.5878  -4.8582

     occupation numbers 
     1.0000   1.0000   1.0000   1.0000

          k = 0.2292 0.6856 0.0000 (  7228 PWs)   bands (ev):

   -18.6550 -12.2204 -10.3745  -5.2592

     occupation numbers 
     1.0000   1.0000   1.0000   1.0000

          k = 0.2292-0.4210 0.0000 (  7242 PWs)   bands (ev):

   -18.9913 -11.8031 -10.0321  -5.7638

     occupation numbers 
     1.0000   1.0000   1.0000   1.0000

          k = 0.2292-0.3729 0.0000 (  7242 PWs)   bands (ev):

   -19.3599 -11.3488  -9.5685  -6.2992

     occupation numbers 
     1.0000   1.0000   1.0000   1.0000

          k = 0.2292-0.3248 0.0000 (  7256 PWs)   bands (ev):

   -19.7264 -10.8863  -9.0181  -6.8202

     occupation numbers 
     1.0000   1.0000   1.0000   1.0000

          k = 0.2292-0.2766 0.0000 (  7250 PWs)   bands (ev):

   -20.0682 -10.4190  -8.4406  -7.2993

     occupation numbers 
     1.0000   1.0000   1.0000   1.0000

          k = 0.2292-0.2285 0.0000 (  7247 PWs)   bands (ev):

   -20.3708  -9.9443  -7.9055  -7.7195

     occupation numbers 
     1.0000   1.0000   1.0000   1.0000

          k = 0.2292-0.1804 0.0000 (  7256 PWs)   bands (ev):

   -20.6246  -9.4657  -8.0698  -7.4790

     occupation numbers 
     1.0000   1.0000   1.0000   1.0000

          k = 0.2292-0.1323 0.0000 (  7265 PWs)   bands (ev):

   -20.8235  -8.9982  -8.3433  -7.2093

     occupation numbers 
     1.0000   1.0000   1.0000   1.0000

          k = 0.2708 0.4691 0.0000 (  7228 PWs)   bands (ev):

   -18.5100 -12.2618 -10.6807  -5.0371

     occupation numbers 
     1.0000   1.0000   1.0000   1.0000

          k = 0.2708 0.5172 0.0000 (  7211 PWs)   bands (ev):

   -18.2807 -12.4389 -10.9951  -4.6725

     occupation numbers 
     1.0000   1.0000   1.0000   1.0000

          k = 0.2708 0.5653 0.0000 (  7187 PWs)   bands (ev):

   -18.1719 -12.5237 -11.1337  -4.4928

     occupation numbers 
     1.0000   1.0000   1.0000   1.0000

          k = 0.2708 0.6134 0.0000 (  7195 PWs)   bands (ev):

   -18.2090 -12.4947 -11.0873  -4.5546

     occupation numbers 
     1.0000   1.0000   1.0000   1.0000

          k = 0.2708 0.6615 0.0000 (  7213 PWs)   bands (ev):

   -18.3829 -12.3600 -10.8586  -4.8370

     occupation numbers 
     1.0000   1.0000   1.0000   1.0000

          k = 0.2708 0.7097 0.0000 (  7229 PWs)   bands (ev):

   -18.6564 -12.1476 -10.4657  -5.2624

     occupation numbers 
     1.0000   1.0000   1.0000   1.0000

          k = 0.2708-0.3969 0.0000 (  7241 PWs)   bands (ev):

   -18.9851 -11.8787  -9.9488  -5.7539

     occupation numbers 
     1.0000   1.0000   1.0000   1.0000

          k = 0.2708-0.3488 0.0000 (  7233 PWs)   bands (ev):

   -19.3312 -11.5615  -9.3640  -6.2565

     occupation numbers 
     1.0000   1.0000   1.0000   1.0000

          k = 0.2708-0.3007 0.0000 (  7248 PWs)   bands (ev):

   -19.6676 -11.1989  -8.7732  -6.7356

     occupation numbers 
     1.0000   1.0000   1.0000   1.0000

          k = 0.2708-0.2526 0.0000 (  7249 PWs)   bands (ev):

   -19.9756 -10.7954  -8.2392  -7.1686

     occupation numbers 
     1.0000   1.0000   1.0000   1.0000

          k = 0.2708-0.2045 0.0000 (  7255 PWs)   bands (ev):

   -20.2428 -10.3598  -7.8212  -7.5412

     occupation numbers 
     1.0000   1.0000   1.0000   1.0000

          k = 0.2708-0.1564 0.0000 (  7243 PWs)   bands (ev):

   -20.4610  -9.9075  -7.8437  -7.5636

     occupation numbers 
     1.0000   1.0000   1.0000   1.0000

          k = 0.3125 0.5413 0.0000 (  7182 PWs)   bands (ev):

   -18.1364 -12.4163 -11.3384  -4.4358

     occupation numbers 
     1.0000   1.0000   1.0000   1.0000

          k = 0.3125 0.5894 0.0000 (  7180 PWs)   bands (ev):

   -18.1061 -12.4030 -11.4177  -4.3850

     occupation numbers 
     1.0000   1.0000   1.0000   1.0000

          k = 0.3125 0.6375 0.0000 (  7193 PWs)   bands (ev):

   -18.1956 -12.4322 -11.1923  -4.5339

     occupation numbers 
     1.0000   1.0000   1.0000   1.0000

          k = 0.3125 0.6856 0.0000 (  7220 PWs)   bands (ev):

   -18.3881 -12.4287 -10.7600  -4.8439

     occupation numbers 
     1.0000   1.0000   1.0000   1.0000

          k = 0.3125 0.7337 0.0000 (  7232 PWs)   bands (ev):

   -18.6525 -12.3440 -10.2146  -5.2532

     occupation numbers 
     1.0000   1.0000   1.0000   1.0000

          k = 0.3125-0.3729 0.0000 (  7233 PWs)   bands (ev):

   -18.9550 -12.1715  -9.6212  -5.7056

     occupation numbers 
     1.0000   1.0000   1.0000   1.0000

          k = 0.3125-0.3248 0.0000 (  7247 PWs)   bands (ev):

   -19.2663 -11.9184  -9.0364  -6.1596

     occupation numbers 
     1.0000   1.0000   1.0000   1.0000

          k = 0.3125-0.2766 0.0000 (  7250 PWs)   bands (ev):

   -19.5644 -11.5958  -8.5171  -6.5866

     occupation numbers 
     1.0000   1.0000   1.0000   1.0000

          k = 0.3125-0.2285 0.0000 (  7262 PWs)   bands (ev):

   -19.8333 -11.2166  -8.1182  -6.9673

     occupation numbers 
     1.0000   1.0000   1.0000   1.0000

          k = 0.3125-0.1804 0.0000 (  7239 PWs)   bands (ev):

   -20.0620 -10.7969  -7.8817  -7.2885

     occupation numbers 
     1.0000   1.0000   1.0000   1.0000

          k = 0.3542 0.6134 0.0000 (  7174 PWs)   bands (ev):

   -18.1283 -12.4524 -11.3135  -4.4215

     occupation numbers 
     1.0000   1.0000   1.0000   1.0000

          k = 0.3542 0.6615 0.0000 (  7209 PWs)   bands (ev):

   -18.2357 -12.5920 -10.9059  -4.5960

     occupation numbers 
     1.0000   1.0000   1.0000   1.0000

          k = 0.3542 0.7097 0.0000 (  7228 PWs)   bands (ev):

   -18.4151 -12.6710 -10.3703  -4.8806

     occupation numbers 
     1.0000   1.0000   1.0000   1.0000

          k = 0.3542 0.7578 0.0000 (  7247 PWs)   bands (ev):

   -18.6462 -12.6472  -9.7912  -5.2366

     occupation numbers 
     1.0000   1.0000   1.0000   1.0000

          k = 0.3542-0.3488 0.0000 (  7241 PWs)   bands (ev):

   -18.9051 -12.5186  -9.2266  -5.6254

     occupation numbers 
     1.0000   1.0000   1.0000   1.0000

          k = 0.3542-0.3007 0.0000 (  7264 PWs)   bands (ev):

   -19.1698 -12.2956  -8.7315  -6.0147

     occupation numbers 
     1.0000   1.0000   1.0000   1.0000

          k = 0.3542-0.2526 0.0000 (  7264 PWs)   bands (ev):

   -19.4216 -11.9924  -8.3589  -6.3794

     occupation numbers 
     1.0000   1.0000   1.0000   1.0000

          k = 0.3542-0.2045 0.0000 (  7257 PWs)   bands (ev):

   -19.6463 -11.6258  -8.1497  -6.7013

     occupation numbers 
     1.0000   1.0000   1.0000   1.0000

          k = 0.3958 0.6856 0.0000 (  7230 PWs)   bands (ev):

   -18.3277 -12.7900 -10.4215  -4.7387

     occupation numbers 
     1.0000   1.0000   1.0000   1.0000

          k = 0.3958 0.7337 0.0000 (  7240 PWs)   bands (ev):

   -18.4668 -12.9131  -9.8759  -4.9534

     occupation numbers 
     1.0000   1.0000   1.0000   1.0000

          k = 0.3958 0.7818 0.0000 (  7238 PWs)   bands (ev):

   -18.6432 -12.9283  -9.3416  -5.2232

     occupation numbers 
     1.0000   1.0000   1.0000   1.0000

          k = 0.3958-0.3248 0.0000 (  7255 PWs)   bands (ev):

   -18.8428 -12.8320  -8.8771  -5.5247

     occupation numbers 
     1.0000   1.0000   1.0000   1.0000

          k = 0.3958-0.2766 0.0000 (  7262 PWs)   bands (ev):

   -19.0491 -12.6331  -8.5356  -5.8324

     occupation numbers 
     1.0000   1.0000   1.0000   1.0000

          k = 0.3958-0.2285 0.0000 (  7257 PWs)   bands (ev):

   -19.2464 -12.3468  -8.3580  -6.1234

     occupation numbers 
     1.0000   1.0000   1.0000   1.0000

          k = 0.4375 0.7578 0.0000 (  7244 PWs)   bands (ev):

   -18.5457 -13.0759  -9.3801  -5.0687

     occupation numbers 
     1.0000   1.0000   1.0000   1.0000

          k = 0.4375 0.8059 0.0000 (  7242 PWs)   bands (ev):

   -18.6511 -13.1301  -8.9506  -5.2269

     occupation numbers 
     1.0000   1.0000   1.0000   1.0000

          k = 0.4375-0.3007 0.0000 (  7248 PWs)   bands (ev):

   -18.7774 -13.0688  -8.6435  -5.4190

     occupation numbers 
     1.0000   1.0000   1.0000   1.0000

          k = 0.4375-0.2526 0.0000 (  7257 PWs)   bands (ev):

   -18.9142 -12.8982  -8.5001  -5.6276

     occupation numbers 
     1.0000   1.0000   1.0000   1.0000

          k = 0.4792 0.8299 0.0000 (  7258 PWs)   bands (ev):

   -18.6757 -13.2256  -8.6798  -5.2598

     occupation numbers 
     1.0000   1.0000   1.0000   1.0000

          k = 0.4792-0.2766 0.0000 (  7268 PWs)   bands (ev):

   -18.7190 -13.2044  -8.5721  -5.3259

     occupation numbers 
     1.0000   1.0000   1.0000   1.0000

     highest occupied level (ev):    -4.3850

!    total energy              =     -25.80870684 Ry
     estimated scf accuracy    <          5.2E-11 Ry

     The total energy is the sum of the following terms:
     one-electron contribution =    -220.99710867 Ry
     hartree contribution      =     111.89113481 Ry
     xc contribution           =      -7.27957595 Ry
     ewald contribution        =      90.57684297 Ry

     convergence has been achieved in  13 iterations

     Forces acting on atoms (cartesian axes, Ry/au):

     atom    1 type  2   force =     0.00000000    0.00000000    0.00000000
     atom    2 type  1   force =     0.00000000    0.00000000    0.00000000
     The non-local contrib.  to forces
     atom    1 type  2   force =     0.00000000    0.00000000    0.00000000
     atom    2 type  1   force =     0.00000000   -0.00000000    0.00000000
     The ionic contribution  to forces
     atom    1 type  2   force =     0.00000002   -0.00000001    0.00000000
     atom    2 type  1   force =    -0.00000002    0.00000001   -0.00000000
     The local contribution  to forces
     atom    1 type  2   force =     0.00000003   -0.00000002    0.00000000
     atom    2 type  1   force =     0.00000000   -0.00000000    0.00000000
     The core correction contribution to forces
     atom    1 type  2   force =     0.00000000    0.00000000    0.00000000
     atom    2 type  1   force =     0.00000000    0.00000000    0.00000000
     The Hubbard contrib.    to forces
     atom    1 type  2   force =     0.00000000    0.00000000    0.00000000
     atom    2 type  1   force =     0.00000000    0.00000000    0.00000000
     The SCF correction term to forces
     atom    1 type  2   force =     0.00000000   -0.00000000   -0.00000000
     atom    2 type  1   force =     0.00000000   -0.00000000   -0.00000000

     Total force =     0.000000     Total SCF correction =     0.000000


     Computing stress (Cartesian axis) and pressure

          total   stress  (Ry/bohr**3)                   (kbar)     P=      -12.16
  -0.00011897   0.00000000   0.00000000          -17.50        0.00        0.00
   0.00000000  -0.00011897  -0.00000000            0.00      -17.50       -0.00
   0.00000000  -0.00000000  -0.00000995            0.00       -0.00       -1.46

     kinetic stress (kbar)   2419.37      0.00      0.00
                                0.00   2419.37      0.00
                                0.00      0.00   2641.07

     local   stress (kbar) -45887.16     -0.00     -0.00
                               -0.00 -45887.16     -0.00
                               -0.00     -0.00  45987.69

     nonloc. stress (kbar)   -346.15      0.00      0.00
                                0.00   -346.15     -0.00
                                0.00     -0.00   -326.20

     hartree stress (kbar)  22046.15     -0.00     -0.00
                               -0.00  22046.15      0.00
                               -0.00      0.00 -21632.93

     exc-cor stress (kbar)   -450.52      0.00      0.00
                                0.00   -450.52      0.00
                                0.00      0.00   -450.52

     corecor stress (kbar)      0.00      0.00      0.00
                                0.00      0.00      0.00
                                0.00      0.00      0.00

     ewald   stress (kbar)  22200.81      0.00      0.00
                                0.00  22200.81      0.00
                                0.00      0.00 -26220.57

     hubbard stress (kbar)      0.00      0.00      0.00
                                0.00      0.00      0.00
                                0.00      0.00      0.00

     DFT-D   stress (kbar)      0.00      0.00      0.00
                                0.00      0.00      0.00
                                0.00      0.00      0.00

     XDM     stress (kbar)      0.00      0.00      0.00
                                0.00      0.00      0.00
                                0.00      0.00      0.00

     dft-nl  stress (kbar)      0.00      0.00      0.00
                                0.00      0.00      0.00
                                0.00      0.00      0.00

     TS-vdW  stress (kbar)      0.00      0.00      0.00
                                0.00      0.00      0.00
                                0.00      0.00      0.00

     MDB     stress (kbar)      0.00      0.00      0.00
                                0.00      0.00      0.00
                                0.00      0.00      0.00

     3D-RISM stress (kbar)      0.00      0.00      0.00
                                0.00      0.00      0.00
                                0.00      0.00      0.00


     Writing all to output data dir ./bn.save/

     init_run     :      0.20s CPU      0.24s WALL (       1 calls)
     electrons    :      3.02s CPU      3.66s WALL (       1 calls)
     forces       :      0.03s CPU      0.03s WALL (       1 calls)
     stress       :      0.07s CPU      0.08s WALL (       1 calls)

     Called by init_run:
     wfcinit      :      0.15s CPU      0.18s WALL (       1 calls)
     wfcinit:atom :      0.00s CPU      0.00s WALL (      78 calls)
     wfcinit:wfcr :      0.15s CPU      0.17s WALL (      78 calls)
     potinit      :      0.02s CPU      0.02s WALL (       1 calls)
     hinit0       :      0.01s CPU      0.01s WALL (       1 calls)

     Called by electrons:
     c_bands      :      2.66s CPU      3.24s WALL (      13 calls)
     sum_band     :      0.34s CPU      0.37s WALL (      13 calls)
     v_of_rho     :      0.01s CPU      0.01s WALL (      14 calls)
     v_h          :      0.00s CPU      0.00s WALL (      14 calls)
     v_xc         :      0.00s CPU      0.00s WALL (      14 calls)
     mix_rho      :      0.01s CPU      0.01s WALL (      13 calls)

     Called by c_bands:
     init_us_2    :      0.04s CPU      0.04s WALL (    2262 calls)
     init_us_2:cp :      0.03s CPU      0.04s WALL (    2262 calls)
     cegterg      :      2.31s CPU      2.57s WALL (    1014 calls)

     Called by sum_band:
     sum_band:wei :      0.00s CPU      0.00s WALL (      13 calls)
     sum_band:loo :      0.33s CPU      0.35s WALL (      13 calls)
     sum_band:buf :      0.00s CPU      0.00s WALL (    1014 calls)
     sum_band:ini :      0.02s CPU      0.02s WALL (    1014 calls)

     Called by *egterg:
     cdiaghg      :      0.11s CPU      0.13s WALL (    3381 calls)
     cegterg:over :      0.14s CPU      0.15s WALL (    2367 calls)
     cegterg:upda :      0.01s CPU      0.01s WALL (    2367 calls)
     cegterg:last :      0.01s CPU      0.01s WALL (    1026 calls)
     h_psi        :      2.07s CPU      2.30s WALL (    3459 calls)
     g_psi        :      0.00s CPU      0.00s WALL (    2367 calls)

     Called by h_psi:
     h_psi:calbec :      0.14s CPU      0.16s WALL (    3459 calls)
     vloc_psi     :      1.89s CPU      2.10s WALL (    3459 calls)
     add_vuspsi   :      0.02s CPU      0.03s WALL (    3459 calls)

     General routines
     calbec       :      0.16s CPU      0.17s WALL (    3849 calls)
     fft          :      0.01s CPU      0.01s WALL (      46 calls)
     ffts         :      0.00s CPU      0.00s WALL (      13 calls)
     fftw         :      2.12s CPU      2.34s WALL (   29202 calls)

     Parallel routines

     PWSCF        :      3.68s CPU      4.56s WALL


   This run was terminated on:  14:16:42  23Jan2025            

=------------------------------------------------------------------------------=
   JOB DONE.
=------------------------------------------------------------------------------=
Note: The following floating-point exceptions are signalling: IEEE_DENORMAL
Note: The following floating-point exceptions are signalling: IEEE_DENORMAL
Note: The following floating-point exceptions are signalling: IEEE_DENORMAL
Note: The following floating-point exceptions are signalling: IEEE_DENORMAL
Note: The following floating-point exceptions are signalling: IEEE_DENORMAL
Note: The following floating-point exceptions are signalling: IEEE_DENORMAL
Note: The following floating-point exceptions are signalling: IEEE_DENORMAL
Note: The following floating-point exceptions are signalling: IEEE_INVALID_FLAG IEEE_DENORMAL
Note: The following floating-point exceptions are signalling: IEEE_DENORMAL
Note: The following floating-point exceptions are signalling: IEEE_DENORMAL
Note: The following floating-point exceptions are signalling: IEEE_DENORMAL
Note: The following floating-point exceptions are signalling: IEEE_DENORMAL
Note: The following floating-point exceptions are signalling: IEEE_DENORMAL
Note: The following floating-point exceptions are signalling: IEEE_DENORMAL
Note: The following floating-point exceptions are signalling: IEEE_DENORMAL
Note: The following floating-point exceptions are signalling: IEEE_DENORMAL
Note: The following floating-point exceptions are signalling: IEEE_DENORMAL
Note: The following floating-point exceptions are signalling: IEEE_DENORMAL
Note: The following floating-point exceptions are signalling: IEEE_INVALID_FLAG IEEE_DENORMAL
Note: The following floating-point exceptions are signalling: IEEE_DENORMAL
